solid FWepIN
   facet normal 0.000000e+000 -7.547297e-001 -6.560358e-001
      outer loop
         vertex -4.905000e-001 2.987676e-002 2.943066e-001
         vertex -4.935000e-001 3.171697e-002 2.921697e-001
         vertex -4.905000e-001 3.171697e-002 2.921697e-001
      endloop
   endfacet
   facet normal 0.000000e+000 -7.423954e-001 -6.699620e-001
      outer loop
         vertex -4.905000e-001 3.171697e-002 2.921697e-001
         vertex -4.935000e-001 3.171697e-002 2.921697e-001
         vertex -4.935000e-001 3.362606e-002 2.900738e-001
      endloop
   endfacet
   facet normal 0.000000e+000 -7.361319e-001 -6.768381e-001
      outer loop
         vertex -4.905000e-001 3.171697e-002 2.921697e-001
         vertex -4.935000e-001 3.362606e-002 2.900738e-001
         vertex -4.905000e-001 3.362606e-002 2.900738e-001
      endloop
   endfacet
   facet normal 0.000000e+000 -7.233832e-001 -6.904467e-001
      outer loop
         vertex -4.905000e-001 3.362606e-002 2.900738e-001
         vertex -4.935000e-001 3.362606e-002 2.900738e-001
         vertex -4.935000e-001 3.559401e-002 2.880311e-001
      endloop
   endfacet
   facet normal 0.000000e+000 -7.168974e-001 -6.971786e-001
      outer loop
         vertex -4.905000e-001 3.362606e-002 2.900738e-001
         vertex -4.935000e-001 3.559401e-002 2.880311e-001
         vertex -4.905000e-001 3.559401e-002 2.880311e-001
      endloop
   endfacet
   facet normal 0.000000e+000 -7.036689e-001 -7.105281e-001
      outer loop
         vertex -4.905000e-001 3.559401e-002 2.880311e-001
         vertex -4.935000e-001 3.559401e-002 2.880311e-001
         vertex -4.935000e-001 3.760941e-002 2.860537e-001
      endloop
   endfacet
   facet normal 0.000000e+000 -6.969247e-001 -7.171443e-001
      outer loop
         vertex -4.905000e-001 3.559401e-002 2.880311e-001
         vertex -4.935000e-001 3.760941e-002 2.860537e-001
         vertex -4.905000e-001 3.760941e-002 2.860537e-001
      endloop
   endfacet
   facet normal 0.000000e+000 -6.831372e-001 -7.302901e-001
      outer loop
         vertex -4.905000e-001 3.760941e-002 2.860537e-001
         vertex -4.935000e-001 3.760941e-002 2.860537e-001
         vertex -4.935000e-001 3.965976e-002 2.841539e-001
      endloop
   endfacet
   facet normal 0.000000e+000 -6.760918e-001 -7.368174e-001
      outer loop
         vertex -4.905000e-001 3.760941e-002 2.860537e-001
         vertex -4.935000e-001 3.965976e-002 2.841539e-001
         vertex -4.905000e-001 3.965976e-002 2.841539e-001
      endloop
   endfacet
   facet normal 0.000000e+000 -6.626080e-001 -7.489664e-001
      outer loop
         vertex -4.905000e-001 3.965976e-002 2.841539e-001
         vertex -4.935000e-001 3.965976e-002 2.841539e-001
         vertex -4.935000e-001 4.146481e-002 2.825704e-001
      endloop
   endfacet
   facet normal 0.000000e+000 -6.561825e-001 -7.546023e-001
      outer loop
         vertex -4.905000e-001 3.965976e-002 2.841539e-001
         vertex -4.935000e-001 4.146481e-002 2.825704e-001
         vertex -4.905000e-001 4.146481e-002 2.825704e-001
      endloop
   endfacet
   facet normal 0.000000e+000 -6.420249e-001 -7.666838e-001
      outer loop
         vertex -4.905000e-001 4.146481e-002 2.825704e-001
         vertex -4.935000e-001 4.146481e-002 2.825704e-001
         vertex -4.935000e-001 4.354367e-002 2.808468e-001
      endloop
   endfacet
   facet normal 0.000000e+000 -6.342745e-001 -7.731079e-001
      outer loop
         vertex -4.905000e-001 4.146481e-002 2.825704e-001
         vertex -4.935000e-001 4.354367e-002 2.808468e-001
         vertex -4.905000e-001 4.354367e-002 2.808468e-001
      endloop
   endfacet
   facet normal 0.000000e+000 -6.183074e-001 -7.859364e-001
      outer loop
         vertex -4.905000e-001 4.354367e-002 2.808468e-001
         vertex -4.935000e-001 4.354367e-002 2.808468e-001
         vertex -4.935000e-001 4.561806e-002 2.792317e-001
      endloop
   endfacet
   facet normal 0.000000e+000 -6.100861e-001 -7.923351e-001
      outer loop
         vertex -4.905000e-001 4.354367e-002 2.808468e-001
         vertex -4.935000e-001 4.561806e-002 2.792317e-001
         vertex -4.905000e-001 4.561806e-002 2.792317e-001
      endloop
   endfacet
   facet normal 0.000000e+000 -5.931034e-001 -8.051263e-001
      outer loop
         vertex -4.905000e-001 4.561806e-002 2.792317e-001
         vertex -4.935000e-001 4.561806e-002 2.792317e-001
         vertex -4.935000e-001 4.767358e-002 2.777339e-001
      endloop
   endfacet
   facet normal 0.000000e+000 -5.843363e-001 -8.115116e-001
      outer loop
         vertex -4.905000e-001 4.561806e-002 2.792317e-001
         vertex -4.935000e-001 4.767358e-002 2.777339e-001
         vertex -4.905000e-001 4.767358e-002 2.777339e-001
      endloop
   endfacet
   facet normal 0.000000e+000 -5.666500e-001 -8.239586e-001
      outer loop
         vertex -4.905000e-001 4.767358e-002 2.777339e-001
         vertex -4.935000e-001 4.767358e-002 2.777339e-001
         vertex -4.935000e-001 4.969574e-002 2.763596e-001
      endloop
   endfacet
   facet normal 0.000000e+000 -5.577316e-001 -8.300214e-001
      outer loop
         vertex -4.905000e-001 4.767358e-002 2.777339e-001
         vertex -4.935000e-001 4.969574e-002 2.763596e-001
         vertex -4.905000e-001 4.969574e-002 2.763596e-001
      endloop
   endfacet
   facet normal 0.000000e+000 -5.404873e-001 -8.413522e-001
      outer loop
         vertex -4.905000e-001 4.969574e-002 2.763596e-001
         vertex -4.935000e-001 4.969574e-002 2.763596e-001
         vertex -4.935000e-001 5.169990e-002 2.750865e-001
      endloop
   endfacet
   facet normal 0.000000e+000 -5.321721e-001 -8.466362e-001
      outer loop
         vertex -4.905000e-001 4.969574e-002 2.763596e-001
         vertex -4.935000e-001 5.169990e-002 2.750865e-001
         vertex -4.905000e-001 5.169990e-002 2.750865e-001
      endloop
   endfacet
   facet normal 0.000000e+000 -5.158271e-001 -8.566927e-001
      outer loop
         vertex -4.905000e-001 5.169990e-002 2.750865e-001
         vertex -4.935000e-001 5.169990e-002 2.750865e-001
         vertex -4.935000e-001 5.379333e-002 2.738399e-001
      endloop
   endfacet
   facet normal 0.000000e+000 -5.078021e-001 -8.614737e-001
      outer loop
         vertex -4.905000e-001 5.169990e-002 2.750865e-001
         vertex -4.935000e-001 5.379333e-002 2.738399e-001
         vertex -4.905000e-001 5.379333e-002 2.738399e-001
      endloop
   endfacet
   facet normal 0.000000e+000 -4.921987e-001 -8.704829e-001
      outer loop
         vertex -4.905000e-001 5.379333e-002 2.738399e-001
         vertex -4.935000e-001 5.379333e-002 2.738399e-001
         vertex -4.935000e-001 5.598975e-002 2.726113e-001
      endloop
   endfacet
   facet normal 0.000000e+000 -4.846261e-001 -8.747214e-001
      outer loop
         vertex -4.905000e-001 5.379333e-002 2.738399e-001
         vertex -4.935000e-001 5.598975e-002 2.726113e-001
         vertex -4.905000e-001 5.598975e-002 2.726113e-001
      endloop
   endfacet
   facet normal 0.000000e+000 -4.701762e-001 -8.825726e-001
      outer loop
         vertex -4.905000e-001 5.598975e-002 2.726113e-001
         vertex -4.935000e-001 5.598975e-002 2.726113e-001
         vertex -4.935000e-001 5.831245e-002 2.713866e-001
      endloop
   endfacet
   facet normal 0.000000e+000 -4.633059e-001 -8.861985e-001
      outer loop
         vertex -4.905000e-001 5.598975e-002 2.726113e-001
         vertex -4.935000e-001 5.831245e-002 2.713866e-001
         vertex -4.905000e-001 5.831245e-002 2.713866e-001
      endloop
   endfacet
   facet normal 0.000000e+000 -4.507098e-001 -8.926706e-001
      outer loop
         vertex -4.905000e-001 5.831245e-002 2.713866e-001
         vertex -4.935000e-001 5.831245e-002 2.713866e-001
         vertex -4.935000e-001 6.080539e-002 2.701396e-001
      endloop
   endfacet
   facet normal 0.000000e+000 -4.449929e-001 -8.955341e-001
      outer loop
         vertex -4.905000e-001 5.831245e-002 2.713866e-001
         vertex -4.935000e-001 6.080539e-002 2.701396e-001
         vertex -4.905000e-001 6.080539e-002 2.701396e-001
      endloop
   endfacet
   facet normal 0.000000e+000 -4.354583e-001 -9.002089e-001
      outer loop
         vertex -4.905000e-001 6.080539e-002 2.701396e-001
         vertex -4.935000e-001 6.080539e-002 2.701396e-001
         vertex -4.935000e-001 6.450353e-002 2.683691e-001
      endloop
   endfacet
   facet normal 0.000000e+000 -4.316508e-001 -9.020408e-001
      outer loop
         vertex -4.905000e-001 6.080539e-002 2.701396e-001
         vertex -4.935000e-001 6.450353e-002 2.683691e-001
         vertex -4.905000e-001 6.450353e-002 2.683691e-001
      endloop
   endfacet
   facet normal 0.000000e+000 -4.277714e-001 -9.038869e-001
      outer loop
         vertex -4.905000e-001 6.450353e-002 2.683691e-001
         vertex -4.935000e-001 6.450353e-002 2.683691e-001
         vertex -4.935000e-001 7.471500e-002 2.635147e-001
      endloop
   endfacet
   facet normal 0.000000e+000 -4.277074e-001 -9.039173e-001
      outer loop
         vertex -4.905000e-001 6.450353e-002 2.683691e-001
         vertex -4.935000e-001 7.471500e-002 2.635147e-001
         vertex -4.905000e-001 7.471500e-002 2.635147e-001
      endloop
   endfacet
   facet normal 0.000000e+000 -4.232542e-001 -9.060110e-001
      outer loop
         vertex -4.905000e-001 7.471500e-002 2.635147e-001
         vertex -4.935000e-001 7.471500e-002 2.635147e-001
         vertex -4.935000e-001 7.851584e-002 2.617431e-001
      endloop
   endfacet
   facet normal 0.000000e+000 -4.188550e-001 -9.080532e-001
      outer loop
         vertex -4.905000e-001 7.471500e-002 2.635147e-001
         vertex -4.935000e-001 7.851584e-002 2.617431e-001
         vertex -4.905000e-001 7.851584e-002 2.617431e-001
      endloop
   endfacet
   facet normal 0.000000e+000 -4.063433e-001 -9.137205e-001
      outer loop
         vertex -4.905000e-001 7.851584e-002 2.617431e-001
         vertex -4.935000e-001 7.851584e-002 2.617431e-001
         vertex -4.935000e-001 8.121715e-002 2.605512e-001
      endloop
   endfacet
   facet normal 0.000000e+000 -3.982078e-001 -9.172952e-001
      outer loop
         vertex -4.905000e-001 7.851584e-002 2.617431e-001
         vertex -4.935000e-001 8.121715e-002 2.605512e-001
         vertex -4.905000e-001 8.121715e-002 2.605512e-001
      endloop
   endfacet
   facet normal 0.000000e+000 -3.801523e-001 -9.249239e-001
      outer loop
         vertex -4.905000e-001 8.121715e-002 2.605512e-001
         vertex -4.935000e-001 8.121715e-002 2.605512e-001
         vertex -4.935000e-001 8.323721e-002 2.597316e-001
      endloop
   endfacet
   facet normal 0.000000e+000 -3.702184e-001 -9.289447e-001
      outer loop
         vertex -4.905000e-001 8.121715e-002 2.605512e-001
         vertex -4.935000e-001 8.323721e-002 2.597316e-001
         vertex -4.905000e-001 8.323721e-002 2.597316e-001
      endloop
   endfacet
   facet normal 0.000000e+000 -3.481033e-001 -9.374562e-001
      outer loop
         vertex -4.905000e-001 8.323721e-002 2.597316e-001
         vertex -4.935000e-001 8.323721e-002 2.597316e-001
         vertex -4.935000e-001 8.532292e-002 2.589722e-001
      endloop
   endfacet
   facet normal 0.000000e+000 -3.359028e-001 -9.418967e-001
      outer loop
         vertex -4.905000e-001 8.323721e-002 2.597316e-001
         vertex -4.935000e-001 8.532292e-002 2.589722e-001
         vertex -4.905000e-001 8.532292e-002 2.589722e-001
      endloop
   endfacet
   facet normal 0.000000e+000 -3.127966e-001 -9.498201e-001
      outer loop
         vertex -4.905000e-001 8.532292e-002 2.589722e-001
         vertex -4.935000e-001 8.532292e-002 2.589722e-001
         vertex -4.935000e-001 8.741660e-002 2.582977e-001
      endloop
   endfacet
   facet normal 0.000000e+000 -3.019031e-001 -9.533386e-001
      outer loop
         vertex -4.905000e-001 8.532292e-002 2.589722e-001
         vertex -4.935000e-001 8.741660e-002 2.582977e-001
         vertex -4.905000e-001 8.741660e-002 2.582977e-001
      endloop
   endfacet
   facet normal 0.000000e+000 -2.826721e-001 -9.592166e-001
      outer loop
         vertex -4.905000e-001 8.741660e-002 2.582977e-001
         vertex -4.935000e-001 8.741660e-002 2.582977e-001
         vertex -4.935000e-001 8.980481e-002 2.576082e-001
      endloop
   endfacet
   facet normal 0.000000e+000 -2.743507e-001 -9.616297e-001
      outer loop
         vertex -4.905000e-001 8.741660e-002 2.582977e-001
         vertex -4.935000e-001 8.980481e-002 2.576082e-001
         vertex -4.905000e-001 8.980481e-002 2.576082e-001
      endloop
   endfacet
   facet normal 0.000000e+000 -2.600915e-001 -9.655840e-001
      outer loop
         vertex -4.905000e-001 8.980481e-002 2.576082e-001
         vertex -4.935000e-001 8.980481e-002 2.576082e-001
         vertex -4.935000e-001 9.363020e-002 2.565975e-001
      endloop
   endfacet
   facet normal 0.000000e+000 -2.541634e-001 -9.671613e-001
      outer loop
         vertex -4.905000e-001 8.980481e-002 2.576082e-001
         vertex -4.935000e-001 9.363020e-002 2.565975e-001
         vertex -4.905000e-001 9.363020e-002 2.565975e-001
      endloop
   endfacet
   facet normal 0.000000e+000 -2.473366e-001 -9.689296e-001
      outer loop
         vertex -4.905000e-001 9.363020e-002 2.565975e-001
         vertex -4.935000e-001 9.363020e-002 2.565975e-001
         vertex -4.935000e-001 1.045601e-001 2.538411e-001
      endloop
   endfacet
   facet normal 0.000000e+000 -2.464469e-001 -9.691563e-001
      outer loop
         vertex -4.905000e-001 9.363020e-002 2.565975e-001
         vertex -4.935000e-001 1.045601e-001 2.538411e-001
         vertex -4.905000e-001 1.045601e-001 2.538411e-001
      endloop
   endfacet
   facet normal 0.000000e+000 -2.474415e-001 -9.689028e-001
      outer loop
         vertex -4.905000e-001 1.045601e-001 2.538411e-001
         vertex -4.935000e-001 1.045601e-001 2.538411e-001
         vertex -4.935000e-001 1.133714e-001 2.515821e-001
      endloop
   endfacet
   facet normal 0.000000e+000 -2.493251e-001 -9.684198e-001
      outer loop
         vertex -4.905000e-001 1.045601e-001 2.538411e-001
         vertex -4.935000e-001 1.133714e-001 2.515821e-001
         vertex -4.905000e-001 1.133714e-001 2.515821e-001
      endloop
   endfacet
   facet normal 0.000000e+000 -2.519917e-001 -9.677294e-001
      outer loop
         vertex -4.905000e-001 1.133714e-001 2.515821e-001
         vertex -4.935000e-001 1.133714e-001 2.515821e-001
         vertex -4.935000e-001 1.174799e-001 2.505099e-001
      endloop
   endfacet
   facet normal 0.000000e+000 -2.527757e-001 -9.675249e-001
      outer loop
         vertex -4.905000e-001 1.133714e-001 2.515821e-001
         vertex -4.935000e-001 1.174799e-001 2.505099e-001
         vertex -4.905000e-001 1.174799e-001 2.505099e-001
      endloop
   endfacet
   facet normal 0.000000e+000 -2.512678e-001 -9.679176e-001
      outer loop
         vertex -4.905000e-001 1.174799e-001 2.505099e-001
         vertex -4.935000e-001 1.174799e-001 2.505099e-001
         vertex -4.935000e-001 1.213177e-001 2.495142e-001
      endloop
   endfacet
   facet normal 0.000000e+000 -2.489747e-001 -9.685100e-001
      outer loop
         vertex -4.905000e-001 1.174799e-001 2.505099e-001
         vertex -4.935000e-001 1.213177e-001 2.495142e-001
         vertex -4.905000e-001 1.213177e-001 2.495142e-001
      endloop
   endfacet
   facet normal 0.000000e+000 -2.407345e-001 -9.705910e-001
      outer loop
         vertex -4.905000e-001 1.213177e-001 2.495142e-001
         vertex -4.935000e-001 1.213177e-001 2.495142e-001
         vertex -4.935000e-001 1.252890e-001 2.485388e-001
      endloop
   endfacet
   facet normal 0.000000e+000 -2.347794e-001 -9.720487e-001
      outer loop
         vertex -4.905000e-001 1.213177e-001 2.495142e-001
         vertex -4.935000e-001 1.252890e-001 2.485388e-001
         vertex -4.905000e-001 1.252890e-001 2.485388e-001
      endloop
   endfacet
   facet normal 0.000000e+000 -2.222412e-001 -9.749917e-001
      outer loop
         vertex -4.905000e-001 1.252890e-001 2.485388e-001
         vertex -4.935000e-001 1.252890e-001 2.485388e-001
         vertex -4.935000e-001 1.284043e-001 2.478385e-001
      endloop
   endfacet
   facet normal 0.000000e+000 -2.156561e-001 -9.764694e-001
      outer loop
         vertex -4.905000e-001 1.252890e-001 2.485388e-001
         vertex -4.935000e-001 1.284043e-001 2.478385e-001
         vertex -4.905000e-001 1.284043e-001 2.478385e-001
      endloop
   endfacet
   facet normal 0.000000e+000 -2.016353e-001 -9.794607e-001
      outer loop
         vertex -4.905000e-001 1.284043e-001 2.478385e-001
         vertex -4.935000e-001 1.284043e-001 2.478385e-001
         vertex -4.935000e-001 1.313207e-001 2.472487e-001
      endloop
   endfacet
   facet normal 0.000000e+000 -1.941970e-001 -9.809626e-001
      outer loop
         vertex -4.905000e-001 1.284043e-001 2.478385e-001
         vertex -4.935000e-001 1.313207e-001 2.472487e-001
         vertex -4.905000e-001 1.313207e-001 2.472487e-001
      endloop
   endfacet
   facet normal 0.000000e+000 -1.786896e-001 -9.839055e-001
      outer loop
         vertex -4.905000e-001 1.313207e-001 2.472487e-001
         vertex -4.935000e-001 1.313207e-001 2.472487e-001
         vertex -4.935000e-001 1.340851e-001 2.467577e-001
      endloop
   endfacet
   facet normal 0.000000e+000 -1.706186e-001 -9.853371e-001
      outer loop
         vertex -4.905000e-001 1.313207e-001 2.472487e-001
         vertex -4.935000e-001 1.340851e-001 2.467577e-001
         vertex -4.905000e-001 1.340851e-001 2.467577e-001
      endloop
   endfacet
   facet normal 0.000000e+000 -1.539688e-001 -9.880757e-001
      outer loop
         vertex -4.905000e-001 1.340851e-001 2.467577e-001
         vertex -4.935000e-001 1.340851e-001 2.467577e-001
         vertex -4.935000e-001 1.367168e-001 2.463586e-001
      endloop
   endfacet
   facet normal 0.000000e+000 -1.453887e-001 -9.893746e-001
      outer loop
         vertex -4.905000e-001 1.340851e-001 2.467577e-001
         vertex -4.935000e-001 1.367168e-001 2.463586e-001
         vertex -4.905000e-001 1.367168e-001 2.463586e-001
      endloop
   endfacet
   facet normal 0.000000e+000 -1.275274e-001 -9.918351e-001
      outer loop
         vertex -4.905000e-001 1.367168e-001 2.463586e-001
         vertex -4.935000e-001 1.367168e-001 2.463586e-001
         vertex -4.935000e-001 1.391627e-001 2.460547e-001
      endloop
   endfacet
   facet normal 0.000000e+000 -1.182445e-001 -9.929845e-001
      outer loop
         vertex -4.905000e-001 1.367168e-001 2.463586e-001
         vertex -4.935000e-001 1.391627e-001 2.460547e-001
         vertex -4.905000e-001 1.391627e-001 2.460547e-001
      endloop
   endfacet
   facet normal 0.000000e+000 -9.871717e-002 -9.951155e-001
      outer loop
         vertex -4.905000e-001 1.391627e-001 2.460547e-001
         vertex -4.935000e-001 1.391627e-001 2.460547e-001
         vertex -4.935000e-001 1.414059e-001 2.458427e-001
      endloop
   endfacet
   facet normal 0.000000e+000 -8.847073e-002 -9.960788e-001
      outer loop
         vertex -4.905000e-001 1.391627e-001 2.460547e-001
         vertex -4.935000e-001 1.414059e-001 2.458427e-001
         vertex -4.905000e-001 1.414059e-001 2.458427e-001
      endloop
   endfacet
   facet normal 0.000000e+000 -6.682479e-002 -9.977647e-001
      outer loop
         vertex -4.905000e-001 1.414059e-001 2.458427e-001
         vertex -4.935000e-001 1.414059e-001 2.458427e-001
         vertex -4.935000e-001 1.434422e-001 2.457168e-001
      endloop
   endfacet
   facet normal 0.000000e+000 -5.542335e-002 -9.984629e-001
      outer loop
         vertex -4.905000e-001 1.414059e-001 2.458427e-001
         vertex -4.935000e-001 1.434422e-001 2.457168e-001
         vertex -4.905000e-001 1.434422e-001 2.457168e-001
      endloop
   endfacet
   facet normal 0.000000e+000 -3.083350e-002 -9.995245e-001
      outer loop
         vertex -4.905000e-001 1.434422e-001 2.457168e-001
         vertex -4.935000e-001 1.434422e-001 2.457168e-001
         vertex -4.935000e-001 1.453295e-001 2.456696e-001
      endloop
   endfacet
   facet normal 0.000000e+000 -1.764316e-002 -9.998444e-001
      outer loop
         vertex -4.905000e-001 1.434422e-001 2.457168e-001
         vertex -4.935000e-001 1.453295e-001 2.456696e-001
         vertex -4.905000e-001 1.453295e-001 2.456696e-001
      endloop
   endfacet
   facet normal 0.000000e+000 9.940038e-003 -9.999506e-001
      outer loop
         vertex -4.905000e-001 1.453295e-001 2.456696e-001
         vertex -4.935000e-001 1.453295e-001 2.456696e-001
         vertex -4.935000e-001 1.469600e-001 2.456962e-001
      endloop
   endfacet
   facet normal 0.000000e+000 2.433304e-002 -9.997039e-001
      outer loop
         vertex -4.905000e-001 1.453295e-001 2.456696e-001
         vertex -4.935000e-001 1.469600e-001 2.456962e-001
         vertex -4.905000e-001 1.469600e-001 2.456962e-001
      endloop
   endfacet
   facet normal 0.000000e+000 5.411487e-002 -9.985347e-001
      outer loop
         vertex -4.905000e-001 1.469600e-001 2.456962e-001
         vertex -4.935000e-001 1.469600e-001 2.456962e-001
         vertex -4.935000e-001 1.483402e-001 2.457804e-001
      endloop
   endfacet
   facet normal 0.000000e+000 6.950252e-002 -9.975818e-001
      outer loop
         vertex -4.905000e-001 1.469600e-001 2.456962e-001
         vertex -4.935000e-001 1.483402e-001 2.457804e-001
         vertex -4.905000e-001 1.483402e-001 2.457804e-001
      endloop
   endfacet
   facet normal 0.000000e+000 1.001319e-001 -9.949742e-001
      outer loop
         vertex -4.905000e-001 1.483402e-001 2.457804e-001
         vertex -4.935000e-001 1.483402e-001 2.457804e-001
         vertex -4.935000e-001 1.494360e-001 2.458983e-001
      endloop
   endfacet
   facet normal 0.000000e+000 1.153738e-001 -9.933221e-001
      outer loop
         vertex -4.905000e-001 1.483402e-001 2.457804e-001
         vertex -4.935000e-001 1.494360e-001 2.458983e-001
         vertex -4.905000e-001 1.494360e-001 2.458983e-001
      endloop
   endfacet
   facet normal 0.000000e+000 1.458352e-001 -9.893089e-001
      outer loop
         vertex -4.905000e-001 1.494360e-001 2.458983e-001
         vertex -4.935000e-001 1.494360e-001 2.458983e-001
         vertex -4.935000e-001 1.503299e-001 2.460364e-001
      endloop
   endfacet
   facet normal 0.000000e+000 1.610543e-001 -9.869456e-001
      outer loop
         vertex -4.905000e-001 1.494360e-001 2.458983e-001
         vertex -4.935000e-001 1.503299e-001 2.460364e-001
         vertex -4.905000e-001 1.503299e-001 2.460364e-001
      endloop
   endfacet
   facet normal 0.000000e+000 1.914196e-001 -9.815083e-001
      outer loop
         vertex -4.905000e-001 1.503299e-001 2.460364e-001
         vertex -4.935000e-001 1.503299e-001 2.460364e-001
         vertex -4.935000e-001 1.510688e-001 2.461859e-001
      endloop
   endfacet
   facet normal 0.000000e+000 2.065655e-001 -9.784328e-001
      outer loop
         vertex -4.905000e-001 1.503299e-001 2.460364e-001
         vertex -4.935000e-001 1.510688e-001 2.461859e-001
         vertex -4.905000e-001 1.510688e-001 2.461859e-001
      endloop
   endfacet
   facet normal 0.000000e+000 2.367397e-001 -9.715731e-001
      outer loop
         vertex -4.905000e-001 1.510688e-001 2.461859e-001
         vertex -4.935000e-001 1.510688e-001 2.461859e-001
         vertex -4.935000e-001 1.516871e-001 2.463413e-001
      endloop
   endfacet
   facet normal 0.000000e+000 2.517676e-001 -9.677877e-001
      outer loop
         vertex -4.905000e-001 1.510688e-001 2.461859e-001
         vertex -4.935000e-001 1.516871e-001 2.463413e-001
         vertex -4.905000e-001 1.516871e-001 2.463413e-001
      endloop
   endfacet
   facet normal 0.000000e+000 2.831011e-001 -9.590901e-001
      outer loop
         vertex -4.905000e-001 1.516871e-001 2.463413e-001
         vertex -4.935000e-001 1.516871e-001 2.463413e-001
         vertex -4.935000e-001 1.522566e-001 2.465142e-001
      endloop
   endfacet
   facet normal 0.000000e+000 2.993933e-001 -9.541298e-001
      outer loop
         vertex -4.905000e-001 1.516871e-001 2.463413e-001
         vertex -4.935000e-001 1.522566e-001 2.465142e-001
         vertex -4.905000e-001 1.522566e-001 2.465142e-001
      endloop
   endfacet
   facet normal 0.000000e+000 3.303129e-001 -9.438715e-001
      outer loop
         vertex -4.905000e-001 1.522566e-001 2.465142e-001
         vertex -4.935000e-001 1.522566e-001 2.465142e-001
         vertex -4.935000e-001 1.526974e-001 2.466720e-001
      endloop
   endfacet
   facet normal 0.000000e+000 3.449555e-001 -9.386190e-001
      outer loop
         vertex -4.905000e-001 1.522566e-001 2.465142e-001
         vertex -4.935000e-001 1.526974e-001 2.466720e-001
         vertex -4.905000e-001 1.526974e-001 2.466720e-001
      endloop
   endfacet
   facet normal 0.000000e+000 3.740060e-001 -9.274263e-001
      outer loop
         vertex -4.905000e-001 1.526974e-001 2.466720e-001
         vertex -4.935000e-001 1.526974e-001 2.466720e-001
         vertex -4.935000e-001 1.530782e-001 2.468289e-001
      endloop
   endfacet
   facet normal 0.000000e+000 3.884134e-001 -9.214852e-001
      outer loop
         vertex -4.905000e-001 1.526974e-001 2.466720e-001
         vertex -4.935000e-001 1.530782e-001 2.468289e-001
         vertex -4.905000e-001 1.530782e-001 2.468289e-001
      endloop
   endfacet
   facet normal 0.000000e+000 4.169522e-001 -9.089285e-001
      outer loop
         vertex -4.905000e-001 1.530782e-001 2.468289e-001
         vertex -4.935000e-001 1.530782e-001 2.468289e-001
         vertex -4.935000e-001 1.534100e-001 2.469840e-001
      endloop
   endfacet
   facet normal 0.000000e+000 4.310832e-001 -9.023122e-001
      outer loop
         vertex -4.905000e-001 1.530782e-001 2.468289e-001
         vertex -4.935000e-001 1.534100e-001 2.469840e-001
         vertex -4.905000e-001 1.534100e-001 2.469840e-001
      endloop
   endfacet
   facet normal 0.000000e+000 4.590343e-001 -8.884186e-001
      outer loop
         vertex -4.905000e-001 1.534100e-001 2.469840e-001
         vertex -4.935000e-001 1.534100e-001 2.469840e-001
         vertex -4.935000e-001 1.537010e-001 2.471372e-001
      endloop
   endfacet
   facet normal 0.000000e+000 4.728543e-001 -8.811406e-001
      outer loop
         vertex -4.905000e-001 1.534100e-001 2.469840e-001
         vertex -4.935000e-001 1.537010e-001 2.471372e-001
         vertex -4.905000e-001 1.537010e-001 2.471372e-001
      endloop
   endfacet
   facet normal 0.000000e+000 5.001498e-001 -8.659389e-001
      outer loop
         vertex -4.905000e-001 1.537010e-001 2.471372e-001
         vertex -4.935000e-001 1.537010e-001 2.471372e-001
         vertex -4.935000e-001 1.539583e-001 2.472883e-001
      endloop
   endfacet
   facet normal 0.000000e+000 5.136253e-001 -8.580146e-001
      outer loop
         vertex -4.905000e-001 1.537010e-001 2.471372e-001
         vertex -4.935000e-001 1.539583e-001 2.472883e-001
         vertex -4.905000e-001 1.539583e-001 2.472883e-001
      endloop
   endfacet
   facet normal 0.000000e+000 5.401998e-001 -8.415368e-001
      outer loop
         vertex -4.905000e-001 1.539583e-001 2.472883e-001
         vertex -4.935000e-001 1.539583e-001 2.472883e-001
         vertex -4.935000e-001 1.541869e-001 2.474375e-001
      endloop
   endfacet
   facet normal 0.000000e+000 5.532985e-001 -8.329830e-001
      outer loop
         vertex -4.905000e-001 1.539583e-001 2.472883e-001
         vertex -4.935000e-001 1.541869e-001 2.474375e-001
         vertex -4.905000e-001 1.541869e-001 2.474375e-001
      endloop
   endfacet
   facet normal 0.000000e+000 5.790887e-001 -8.152646e-001
      outer loop
         vertex -4.905000e-001 1.541869e-001 2.474375e-001
         vertex -4.935000e-001 1.541869e-001 2.474375e-001
         vertex -4.935000e-001 1.543913e-001 2.475850e-001
      endloop
   endfacet
   facet normal 0.000000e+000 5.917798e-001 -8.060997e-001
      outer loop
         vertex -4.905000e-001 1.541869e-001 2.474375e-001
         vertex -4.935000e-001 1.543913e-001 2.475850e-001
         vertex -4.905000e-001 1.543913e-001 2.475850e-001
      endloop
   endfacet
   facet normal 0.000000e+000 6.167248e-001 -7.871788e-001
      outer loop
         vertex -4.905000e-001 1.543913e-001 2.475850e-001
         vertex -4.935000e-001 1.543913e-001 2.475850e-001
         vertex -4.935000e-001 1.545750e-001 2.477311e-001
      endloop
   endfacet
   facet normal 0.000000e+000 6.289785e-001 -7.774227e-001
      outer loop
         vertex -4.905000e-001 1.543913e-001 2.475850e-001
         vertex -4.935000e-001 1.545750e-001 2.477311e-001
         vertex -4.905000e-001 1.545750e-001 2.477311e-001
      endloop
   endfacet
   facet normal 0.000000e+000 6.543673e-001 -7.561769e-001
      outer loop
         vertex -4.905000e-001 1.545750e-001 2.477311e-001
         vertex -4.935000e-001 1.545750e-001 2.477311e-001
         vertex -4.935000e-001 1.547584e-001 2.478926e-001
      endloop
   endfacet
   facet normal 0.000000e+000 6.674643e-001 -7.446418e-001
      outer loop
         vertex -4.905000e-001 1.545750e-001 2.477311e-001