solid RWduplex
   facet normal 4.552265e-05 -9.999362e-01 1.129962e-02
      outer loop
         vertex 4.497413e-01 9.544882e-01 -1.372838e+00
         vertex 6.764090e-02 9.544561e-01 -1.374147e+00
         vertex 4.497500e-01 9.544486e-01 -1.376351e+00
      endloop
   endfacet
   facet normal -1.654010e-04 -9.996807e-01 -2.526929e-02
      outer loop
         vertex 6.764090e-02 9.544561e-01 -1.374147e+00
         vertex 6.764090e-02 9.545117e-01 -1.376349e+00
         vertex 4.497500e-01 9.544486e-01 -1.376351e+00
      endloop
   endfacet
   facet normal -1.653989e-04 -9.995363e-01 -3.044995e-02
      outer loop
         vertex 6.764090e-02 9.545117e-01 -1.376349e+00
         vertex 4.497590e-01 9.545601e-01 -1.380013e+00
         vertex 4.497500e-01 9.544486e-01 -1.376351e+00
      endloop
   endfacet
   facet normal 9.999970e-01 4.059195e-07 2.468731e-03
      outer loop
         vertex 4.497413e-01 9.739729e-01 -1.372841e+00
         vertex 4.497413e-01 9.544882e-01 -1.372838e+00
         vertex 4.497500e-01 9.544486e-01 -1.376351e+00
      endloop
   endfacet
   facet normal 9.999969e-01 -3.548101e-07 2.472963e-03
      outer loop
         vertex 4.497690e-01 9.739926e-01 -1.384048e+00
         vertex 4.497413e-01 9.739729e-01 -1.372841e+00
         vertex 4.497500e-01 9.544486e-01 -1.376351e+00
      endloop
   endfacet
   facet normal 9.999969e-01 -1.297692e-07 2.473534e-03
      outer loop
         vertex 4.497590e-01 9.545601e-01 -1.380013e+00
         vertex 4.497690e-01 9.739926e-01 -1.384048e+00
         vertex 4.497500e-01 9.544486e-01 -1.376351e+00
      endloop
   endfacet
   facet normal -9.999969e-01 7.310908e-07 2.472097e-03
      outer loop
         vertex -4.497417e-01 9.739731e-01 -1.372778e+00
         vertex -4.497540e-01 9.544737e-01 -1.377763e+00
         vertex -4.497451e-01 9.544561e-01 -1.374147e+00
      endloop
   endfacet
   facet normal -9.999969e-01 -2.878364e-08 2.482934e-03
      outer loop
         vertex -4.497364e-01 9.545885e-01 -1.370666e+00
         vertex -4.497417e-01 9.739731e-01 -1.372778e+00
         vertex -4.497451e-01 9.544561e-01 -1.374147e+00
      endloop
   endfacet
   facet normal 8.683233e-05 -9.999881e-01 -4.878437e-03
      outer loop
         vertex -4.497540e-01 9.544737e-01 -1.377763e+00
         vertex 6.764090e-02 9.545117e-01 -1.376349e+00
         vertex -4.497451e-01 9.544561e-01 -1.374147e+00
      endloop
   endfacet
   facet normal 0.000000e+00 -9.996807e-01 -2.526929e-02
      outer loop
         vertex 6.764090e-02 9.545117e-01 -1.376349e+00
         vertex 6.764090e-02 9.544561e-01 -1.374147e+00
         vertex -4.497451e-01 9.544561e-01 -1.374147e+00
      endloop
   endfacet
   facet normal 0.000000e+00 -9.992769e-01 3.802141e-02
      outer loop
         vertex 6.764090e-02 9.544561e-01 -1.374147e+00
         vertex -4.497364e-01 9.545885e-01 -1.370666e+00
         vertex -4.497451e-01 9.544561e-01 -1.374147e+00
      endloop
   endfacet
   facet normal -1.210835e-04 -9.982048e-01 5.989297e-02
      outer loop
         vertex 4.497413e-01 9.544882e-01 -1.372838e+00
         vertex 6.764090e-02 9.547438e-01 -1.369350e+00
         vertex 6.764090e-02 9.544561e-01 -1.374147e+00
      endloop
   endfacet
   facet normal 1.474224e-04 -9.982048e-01 5.989297e-02
      outer loop
         vertex 6.764090e-02 9.547438e-01 -1.369350e+00
         vertex -4.497364e-01 9.545885e-01 -1.370666e+00
         vertex 6.764090e-02 9.544561e-01 -1.374147e+00
      endloop
   endfacet
   facet normal -9.999970e-01 -1.013480e-06 2.466224e-03
      outer loop
         vertex -4.497694e-01 9.739921e-01 -1.383991e+00
         vertex -4.497629e-01 9.546387e-01 -1.381364e+00
         vertex -4.497540e-01 9.544737e-01 -1.377763e+00
      endloop
   endfacet
   facet normal -9.999969e-01 7.886924e-07 2.471872e-03
      outer loop
         vertex -4.497417e-01 9.739731e-01 -1.372778e+00
         vertex -4.497694e-01 9.739921e-01 -1.383991e+00
         vertex -4.497540e-01 9.544737e-01 -1.377763e+00
      endloop
   endfacet
   facet normal 0.000000e+00 -9.989521e-01 -4.576847e-02
      outer loop
         vertex -4.497629e-01 9.546387e-01 -1.381364e+00
         vertex 6.764090e-02 9.546387e-01 -1.381364e+00
         vertex -4.497540e-01 9.544737e-01 -1.377763e+00
      endloop
   endfacet
   facet normal 1.426469e-04 -9.996797e-01 -2.530624e-02
      outer loop
         vertex 6.764090e-02 9.546387e-01 -1.381364e+00
         vertex 6.764090e-02 9.545117e-01 -1.376349e+00
         vertex -4.497540e-01 9.544737e-01 -1.377763e+00
      endloop
   endfacet
   facet normal -1.712760e-04 -9.985183e-01 5.441626e-02
      outer loop
         vertex 4.497327e-01 9.546785e-01 -1.369346e+00
         vertex 6.764090e-02 9.547438e-01 -1.369350e+00
         vertex 4.497413e-01 9.544882e-01 -1.372838e+00
      endloop
   endfacet
   facet normal 9.999969e-01 4.070448e-07 2.475574e-03
      outer loop
         vertex 4.497413e-01 9.739729e-01 -1.372841e+00
         vertex 4.497327e-01 9.546785e-01 -1.369346e+00
         vertex 4.497413e-01 9.544882e-01 -1.372838e+00
      endloop
   endfacet
   facet normal -1.160551e-04 -9.996797e-01 -2.530624e-02
      outer loop
         vertex 6.764090e-02 9.546387e-01 -1.381364e+00
         vertex 4.497590e-01 9.545601e-01 -1.380013e+00
         vertex 6.764090e-02 9.545117e-01 -1.376349e+00
      endloop
   endfacet
   facet normal 4.324495e-05 -9.975301e-01 -7.024009e-02
      outer loop
         vertex 6.764090e-02 9.546387e-01 -1.381364e+00
         vertex 4.497680e-01 9.548162e-01 -1.383650e+00
         vertex 4.497590e-01 9.545601e-01 -1.380013e+00
      endloop
   endfacet
   facet normal 9.999969e-01 1.722035e-07 2.474988e-03
      outer loop
         vertex 4.497680e-01 9.548162e-01 -1.383650e+00
         vertex 4.497690e-01 9.739926e-01 -1.384048e+00
         vertex 4.497590e-01 9.545601e-01 -1.380013e+00
      endloop
   endfacet
   facet normal -9.999969e-01 -1.923926e-07 2.481432e-03
      outer loop
         vertex -4.497278e-01 9.548725e-01 -1.367207e+00
         vertex -4.497417e-01 9.739731e-01 -1.372778e+00
         vertex -4.497364e-01 9.545885e-01 -1.370666e+00
      endloop
   endfacet
   facet normal 9.121470e-05 -9.966473e-01 8.181832e-02
      outer loop
         vertex 6.764090e-02 9.547438e-01 -1.369350e+00
         vertex -4.497278e-01 9.548725e-01 -1.367207e+00
         vertex -4.497364e-01 9.545885e-01 -1.370666e+00
      endloop
   endfacet
   facet normal -9.999969e-01 1.834507e-07 2.475043e-03
      outer loop
         vertex -4.497694e-01 9.739921e-01 -1.383991e+00
         vertex -4.497722e-01 9.549620e-01 -1.385145e+00
         vertex -4.497629e-01 9.546387e-01 -1.381364e+00
      endloop
   endfacet
   facet normal 8.382579e-05 -9.963642e-01 -8.519627e-02
      outer loop
         vertex -4.497722e-01 9.549620e-01 -1.385145e+00
         vertex 6.764090e-02 9.548771e-01 -1.383643e+00
         vertex -4.497629e-01 9.546387e-01 -1.381364e+00
      endloop
   endfacet
   facet normal 0.000000e+00 -9.945733e-01 -1.040383e-01
      outer loop
         vertex 6.764090e-02 9.548771e-01 -1.383643e+00
         vertex 6.764090e-02 9.546387e-01 -1.381364e+00
         vertex -4.497629e-01 9.546387e-01 -1.381364e+00
      endloop
   endfacet
   facet normal -1.602821e-04 -9.945733e-01 -1.040383e-01
      outer loop
         vertex 6.764090e-02 9.548771e-01 -1.383643e+00
         vertex 4.497680e-01 9.548162e-01 -1.383650e+00
         vertex 6.764090e-02 9.546387e-01 -1.381364e+00
      endloop
   endfacet
   facet normal 4.667023e-05 -9.951333e-01 9.853813e-02
      outer loop
         vertex 4.497242e-01 9.550155e-01 -1.365943e+00
         vertex 6.764090e-02 9.548725e-01 -1.367207e+00
         vertex 4.497327e-01 9.546785e-01 -1.369346e+00
      endloop
   endfacet
   facet normal -1.712786e-04 -9.982046e-01 5.989682e-02
      outer loop
         vertex 6.764090e-02 9.548725e-01 -1.367207e+00
         vertex 6.764090e-02 9.547438e-01 -1.369350e+00
         vertex 4.497327e-01 9.546785e-01 -1.369346e+00
      endloop
   endfacet
   facet normal 9.999969e-01 8.523029e-07 2.478033e-03
      outer loop
         vertex 4.497413e-01 9.739729e-01 -1.372841e+00
         vertex 4.497242e-01 9.550155e-01 -1.365943e+00
         vertex 4.497327e-01 9.546785e-01 -1.369346e+00
      endloop
   endfacet
   facet normal 0.000000e+00 -9.982046e-01 5.989682e-02
      outer loop
         vertex 6.764090e-02 9.548725e-01 -1.367207e+00
         vertex -4.497278e-01 9.548725e-01 -1.367207e+00
         vertex 6.764090e-02 9.547438e-01 -1.369350e+00
      endloop
   endfacet
   facet normal -1.602802e-04 -9.940685e-01 -1.087558e-01
      outer loop
         vertex 6.764090e-02 9.548771e-01 -1.383643e+00
         vertex 4.497776e-01 9.552372e-01 -1.387498e+00
         vertex 4.497680e-01 9.548162e-01 -1.383650e+00
      endloop
   endfacet
   facet normal 9.999969e-01 2.355063e-07 2.478033e-03
      outer loop
         vertex 4.497776e-01 9.552372e-01 -1.387498e+00
         vertex 4.497690e-01 9.739926e-01 -1.384048e+00
         vertex 4.497680e-01 9.548162e-01 -1.383650e+00
      endloop
   endfacet
   facet normal -9.999969e-01 -2.747110e-06 2.472674e-03
      outer loop
         vertex -4.497196e-01 9.553001e-01 -1.363856e+00
         vertex -4.497417e-01 9.739731e-01 -1.372778e+00
         vertex -4.497278e-01 9.548725e-01 -1.367207e+00
      endloop
   endfacet
   facet normal 0.000000e+00 -9.919571e-01 1.265744e-01
      outer loop
         vertex 6.764090e-02 9.548725e-01 -1.367207e+00
         vertex -4.497196e-01 9.553001e-01 -1.363856e+00
         vertex -4.497278e-01 9.548725e-01 -1.367207e+00
      endloop
   endfacet
   facet normal -1.242232e-04 -9.887637e-01 1.494870e-01
      outer loop
         vertex 4.497242e-01 9.550155e-01 -1.365943e+00
         vertex 6.764090e-02 9.555732e-01 -1.362572e+00
         vertex 6.764090e-02 9.548725e-01 -1.367207e+00
      endloop
   endfacet
   facet normal 1.510514e-04 -9.887637e-01 1.494870e-01
      outer loop
         vertex 6.764090e-02 9.555732e-01 -1.362572e+00
         vertex -4.497196e-01 9.553001e-01 -1.363856e+00
         vertex 6.764090e-02 9.548725e-01 -1.367207e+00
      endloop
   endfacet
   facet normal -1.117839e-04 -9.945777e-01 -1.039960e-01
      outer loop
         vertex 6.764090e-02 9.554268e-01 -1.388900e+00
         vertex 4.497776e-01 9.552372e-01 -1.387498e+00
         vertex 6.764090e-02 9.548771e-01 -1.383643e+00
      endloop
   endfacet
   facet normal 1.386824e-04 -9.945777e-01 -1.039960e-01
      outer loop
         vertex -4.497722e-01 9.549620e-01 -1.385145e+00
         vertex 6.764090e-02 9.554268e-01 -1.388900e+00
         vertex 6.764090e-02 9.548771e-01 -1.383643e+00
      endloop
   endfacet
   facet normal -9.999969e-01 1.158369e-07 2.476158e-03
      outer loop
         vertex -4.497694e-01 9.739921e-01 -1.383991e+00
         vertex -4.497815e-01 9.554268e-01 -1.388900e+00
         vertex -4.497722e-01 9.549620e-01 -1.385145e+00
      endloop
   endfacet
   facet normal 0.000000e+00 -9.924267e-01 -1.228384e-01
      outer loop
         vertex -4.497815e-01 9.554268e-01 -1.388900e+00
         vertex 6.764090e-02 9.554268e-01 -1.388900e+00
         vertex -4.497722e-01 9.549620e-01 -1.385145e+00
      endloop
   endfacet
   facet normal -1.741860e-04 -9.895835e-01 1.439598e-01
      outer loop
         vertex 4.497159e-01 9.555074e-01 -1.362562e+00
         vertex 6.764090e-02 9.555732e-01 -1.362572e+00
         vertex 4.497242e-01 9.550155e-01 -1.365943e+00
      endloop
   endfacet
   facet normal 9.999970e-01 -2.633370e-06 2.468453e-03
      outer loop
         vertex 4.497413e-01 9.739729e-01 -1.372841e+00
         vertex 4.497159e-01 9.555074e-01 -1.362562e+00
         vertex 4.497242e-01 9.550155e-01 -1.365943e+00
      endloop
   endfacet
   facet normal 4.085073e-05 -9.894454e-01 -1.449062e-01
      outer loop
         vertex 6.764090e-02 9.554268e-01 -1.388900e+00
         vertex 4.497870e-01 9.557972e-01 -1.391322e+00
         vertex 4.497776e-01 9.552372e-01 -1.387498e+00
      endloop
   endfacet
   facet normal 9.999969e-01 1.489051e-06 2.471218e-03
      outer loop
         vertex 4.497870e-01 9.557972e-01 -1.391322e+00
         vertex 4.497690e-01 9.739926e-01 -1.384048e+00
         vertex 4.497776e-01 9.552372e-01 -1.387498e+00
      endloop
   endfacet
   facet normal -9.999969e-01 -2.169644e-06 2.473882e-03
      outer loop
         vertex -4.497081e-01 9.741232e-01 -1.359213e+00
         vertex -4.497417e-01 9.739731e-01 -1.372778e+00
         vertex -4.497196e-01 9.553001e-01 -1.363856e+00
      endloop
   endfacet
   facet normal -9.999969e-01 -1.532828e-06 2.471300e-03
      outer loop
         vertex -4.497113e-01 9.558824e-01 -1.360527e+00
         vertex -4.497081e-01 9.741232e-01 -1.359213e+00
         vertex -4.497196e-01 9.553001e-01 -1.363856e+00
      endloop
   endfacet
   facet normal 9.242028e-05 -9.850401e-01 1.723251e-01
      outer loop
         vertex 6.764090e-02 9.555732e-01 -1.362572e+00
         vertex -4.497113e-01 9.558824e-01 -1.360527e+00
         vertex -4.497196e-01 9.553001e-01 -1.363856e+00
      endloop
   endfacet
   facet normal -9.999970e-01 1.849634e-06 2.469602e-03
      outer loop
         vertex -4.497694e-01 9.739921e-01 -1.383991e+00
         vertex -4.497914e-01 9.560636e-01 -1.392883e+00
         vertex -4.497815e-01 9.554268e-01 -1.388900e+00
      endloop
   endfacet
   facet normal 7.748678e-05 -9.874573e-01 -1.578865e-01
      outer loop
         vertex -4.497914e-01 9.560636e-01 -1.392883e+00
         vertex 6.764090e-02 9.558530e-01 -1.391312e+00
         vertex -4.497815e-01 9.554268e-01 -1.388900e+00
      endloop
   endfacet
   facet normal 0.000000e+00 -9.847399e-01 -1.740326e-01
      outer loop
         vertex 6.764090e-02 9.558530e-01 -1.391312e+00
         vertex 6.764090e-02 9.554268e-01 -1.388900e+00
         vertex -4.497815e-01 9.554268e-01 -1.388900e+00
      endloop
   endfacet
   facet normal -1.482574e-04 -9.847399e-01 -1.740326e-01
      outer loop
         vertex 6.764090e-02 9.558530e-01 -1.391312e+00
         vertex 4.497870e-01 9.557972e-01 -1.391322e+00
         vertex 6.764090e-02 9.554268e-01 -1.388900e+00
      endloop
   endfacet
   facet normal 4.549891e-05 -9.818836e-01 1.894849e-01
      outer loop
         vertex 4.497079e-01 9.561275e-01 -1.359349e+00
         vertex 6.764090e-02 9.558824e-01 -1.360527e+00
         vertex 4.497159e-01 9.555074e-01 -1.362562e+00
      endloop
   endfacet
   facet normal -1.741890e-04 -9.887606e-01 1.495076e-01
      outer loop
         vertex 6.764090e-02 9.558824e-01 -1.360527e+00
         vertex 6.764090e-02 9.555732e-01 -1.362572e+00
         vertex 4.497159e-01 9.555074e-01 -1.362562e+00
      endloop
   endfacet
   facet normal 9.999969e-01 -2.683295e-07 2.476299e-03
      outer loop
         vertex 4.497078e-01 9.741219e-01 -1.359287e+00
         vertex 4.497079e-01 9.561275e-01 -1.359349e+00
         vertex 4.497159e-01 9.555074e-01 -1.362562e+00
      endloop
   endfacet
   facet normal 9.999969e-01 2.126155e-07 2.473566e-03
      outer loop
         vertex 4.497413e-01 9.739729e-01 -1.372841e+00
         vertex 4.497078e-01 9.741219e-01 -1.359287e+00
         vertex 4.497159e-01 9.555074e-01 -1.362562e+00
      endloop
   endfacet
   facet normal 0.000000e+00 -9.887606e-01 1.495076e-01
      outer loop
         vertex 6.764090e-02 9.558824e-01 -1.360527e+00
         vertex -4.497113e-01 9.558824e-01 -1.360527e+00
         vertex 6.764090e-02 9.555732e-01 -1.362572e+00
      endloop
   endfacet
   facet normal -1.482561e-04 -9.839791e-01 -1.782840e-01
      outer loop
         vertex 6.764090e-02 9.558530e-01 -1.391312e+00
         vertex 4.497971e-01 9.565340e-01 -1.395388e+00
         vertex 4.497870e-01 9.557972e-01 -1.391322e+00
      endloop
   endfacet
   facet normal 9.999969e-01 3.324101e-07 2.474112e-03
      outer loop
         vertex 4.497967e-01 9.741667e-01 -1.395251e+00
         vertex 4.497690e-01 9.739926e-01 -1.384048e+00
         vertex 4.497870e-01 9.557972e-01 -1.391322e+00
      endloop
   endfacet
   facet normal 9.999969e-01 9.838923e-07 2.477157e-03
      outer loop
         vertex 4.497971e-01 9.565340e-01 -1.395388e+00
         vertex 4.497967e-01 9.741667e-01 -1.395251e+00
         vertex 4.497870e-01 9.557972e-01 -1.391322e+00
      endloop
   endfacet
   facet normal -1.015486e-04 -9.847399e-01 -1.740326e-01
      outer loop
         vertex 6.764090e-02 9.568304e-01 -1.396842e+00
         vertex 4.497971e-01 9.565340e-01 -1.395388e+00
         vertex 6.764090e-02 9.558530e-01 -1.391312e+00
      endloop
   endfacet
   facet normal 1.276257e-04 -9.847399e-01 -1.740326e-01
      outer loop
         vertex -4.497914e-01 9.560636e-01 -1.392883e+00
         vertex 6.764090e-02 9.568304e-01 -1.396842e+00
         vertex 6.764090e-02 9.558530e-01 -1.391312e+00
      endloop
   endfacet
   facet normal -9.999970e-01 -1.153496e-06 2.466033e-03
      outer loop
         vertex -4.497042e-01 9.565174e-01 -1.357650e+00
         vertex -4.497081e-01 9.741232e-01 -1.359213e+00
         vertex -4.497113e-01 9.558824e-01 -1.360527e+00
      endloop
   endfacet
   facet normal 0.000000e+00 -9.764884e-01 2.155700e-01
      outer loop
         vertex 6.764090e-02 9.558824e-01 -1.360527e+00
         vertex -4.497042e-01 9.565174e-01 -1.357650e+00
         vertex -4.497113e-01 9.558824e-01 -1.360527e+00
      endloop
   endfacet
   facet normal -1.052045e-04 -9.716967e-01 2.362319e-01
      outer loop
         vertex 4.497079e-01 9.561275e-01 -1.359349e+00
         vertex 6.764090e-02 9.569422e-01 -1.356168e+00
         vertex 6.764090e-02 9.558824e-01 -1.360527e+00
      endloop
   endfacet
   facet normal 1.207663e-04 -9.716967e-01 2.362319e-01
      outer loop
         vertex 6.764090e-02 9.569422e-01 -1.356168e+00
         vertex -4.497042e-01 9.565174e-01 -1.357650e+00
         vertex 6.764090e-02 9.558824e-01 -1.360527e+00
      endloop
   endfacet
   facet normal -9.999969e-01 -4.860500e-06 2.483130e-03
      outer loop
         vertex -4.497694e-01 9.739921e-01 -1.383991e+00
         vertex -4.498012e-01 9.568304e-01 -1.396842e+00
         vertex -4.497914e-01 9.560636e-01 -1.392883e+00
      endloop
   endfacet
   facet normal 0.000000e+00 -9.817580e-01 -1.901350e-01
      outer loop
         vertex -4.498012e-01 9.568304e-01 -1.396842e+00
         vertex 6.764090e-02 9.568304e-01 -1.396842e+00
         vertex -4.497914e-01 9.560636e-01 -1.392883e+00
      endloop
   endfacet
   facet normal -1.204173e-04 -9.721134e-01 2.345113e-01
      outer loop
         vertex 4.497000e-01 9.568975e-01 -1.356157e+00
         vertex 6.764090e-02 9.569422e-01 -1.356168e+00
         vertex 4.497079e-01 9.561275e-01 -1.359349e+00
      endloop
   endfacet
   facet normal 9.999969e-01 -2.619292e-07 2.474445e-03
      outer loop
         vertex 4.497078e-01 9.741219e-01 -1.359287e+00
         vertex 4.497000e-01 9.568975e-01 -1.356157e+00
         vertex 4.497079e-01 9.561275e-01 -1.359349e+00
      endloop
   endfacet
   facet normal -9.999969e-01 1.963031e-07 2.481239e-03
      outer loop
         vertex -4.496971e-01 9.572767e-01 -1.354792e+00
         vertex -4.497081e-01 9.741232e-01 -1.359213e+00
         vertex -4.497042e-01 9.565174e-01 -1.357650e+00
      endloop
   endfacet
   facet normal 5.782559e-05 -9.664904e-01 2.567028e-01
      outer loop
         vertex 6.764090e-02 9.569422e-01 -1.356168e+00
         vertex -4.496971e-01 9.572767e-01 -1.354792e+00
         vertex -4.497042e-01 9.565174e-01 -1.357650e+00
      endloop
   endfacet
   facet normal 3.674063e-05 -9.779175e-01 -2.089913e-01
      outer loop
         vertex 6.764090e-02 9.568304e-01 -1.396842e+00
         vertex 4.498071e-01 9.573981e-01 -1.399432e+00
         vertex 4.497971e-01 9.565340e-01 -1.395388e+00
      endloop
   endfacet
   facet normal 9.999970e-01 1.045234e-06 2.469283e-03
      outer loop
         vertex 4.498071e-01 9.573981e-01 -1.399432e+00
         vertex 4.497967e-01 9.741667e-01 -1.395251e+00
         vertex 4.497971e-01 9.565340e-01 -1.395388e+00
      endloop
   endfacet
   facet normal -9.999970e-01 3.641008e-06 2.463008e-03
      outer loop
         vertex -4.497971e-01 9.741655e-01 -1.395198e+00
         vertex -4.498119e-01 9.578079e-01 -1.401175e+00
         vertex -4.498012e-01 9.568304e-01 -1.396842e+00
      endloop
   endfacet
   facet normal -9.999969e-01 2.688653e-06 2.473049e-03
      outer loop
         vertex -4.497694e-01 9.739921e-01 -1.383991e+00
         vertex -4.497971e-01 9.741655e-01 -1.395198e+00
         vertex -4.498012e-01 9.568304e-01 -1.396842e+00
      endloop
   endfacet
   facet normal 7.095876e-05 -9.754870e-01 -2.200569e-01
      outer loop
         vertex -4.498119e-01 9.578079e-01 -1.401175e+00
         vertex 6.764090e-02 9.574494e-01 -1.399420e+00
         vertex -4.498012e-01 9.568304e-01 -1.396842e+00
      endloop
   endfacet
   facet normal 0.000000e+00 -9.723452e-01 -2.335484e-01
      outer loop
         vertex 6.764090e-02 9.574494e-01 -1.399420e+00
         vertex 6.764090e-02 9.568304e-01 -1.396842e+00
         vertex -4.498012e-01 9.568304e-01 -1.396842e+00
      endloop
   endfacet
   facet normal -1.379426e-04 -9.723452e-01 -2.335484e-01
      outer loop
         vertex 6.764090e-02 9.574494e-01 -1.399420e+00
         vertex 4.498071e-01 9.573981e-01 -1.399432e+00
         vertex 6.764090e-02 9.568304e-01 -1.396842e+00
      endloop
   endfacet
   facet normal 5.163147e-05 -9.596943e-01 2.810461e-01
      outer loop
         vertex 4.496923e-01 9.578150e-01 -1.353024e+00
         vertex 6.764090e-02 9.572767e-01 -1.354792e+00
         vertex 4.497000e-01 9.568975e-01 -1.356157e+00
      endloop
   endfacet
   facet normal -1.204175e-04 -9.716979e-01 2.362270e-01
      outer loop
         vertex 6.764090e-02 9.572767e-01 -1.354792e+00
         vertex 6.764090e-02 9.569422e-01 -1.356168e+00
         vertex 4.497000e-01 9.568975e-01 -1.356157e+00
      endloop
   endfacet
   facet normal 9.999969e-01 -4.872820e-07 2.473205e-03
      outer loop
         vertex 4.497078e-01 9.741219e-01 -1.359287e+00
         vertex 4.496923e-01 9.578150e-01 -1.353024e+00
         vertex 4.497000e-01 9.568975e-01 -1.356157e+00
      endloop
   endfacet
   facet normal 0.000000e+00 -9.716979e-01 2.362270e-01
      outer loop
         vertex 6.764090e-02 9.572767e-01 -1.354792e+00
         vertex -4.496971e-01 9.572767e-01 -1.354792e+00
         vertex 6.764090e-02 9.569422e-01 -1.356168e+00
      endloop
   endfacet
   facet normal -9.999970e-01 -4.355255e-06 2.463897e-03
      outer loop
         vertex -4.496902e-01 9.581655e-01 -1.351960e+00
         vertex -4.497081e-01 9.741232e-01 -1.359213e+00
         vertex -4.496971e-01 9.572767e-01 -1.354792e+00
      endloop
   endfacet
   facet normal 0.000000e+00 -9.541104e-01 2.994550e-01
      outer loop
         vertex 6.764090e-02 9.572767e-01 -1.354792e+00
         vertex -4.496902e-01 9.581655e-01 -1.351960e+00
         vertex -4.496971e-01 9.572767e-01 -1.354792e+00
      endloop
   endfacet
   facet normal -1.525207e-04 -9.469815e-01 3.212880e-01
      outer loop
         vertex 4.496923e-01 9.578150e-01 -1.353024e+00
         vertex 6.764090e-02 9.589208e-01 -1.349946e+00
         vertex 6.764090e-02 9.572767e-01 -1.354792e+00
      endloop
   endfacet
   facet normal 1.317649e-04 -9.469815e-01 3.212880e-01
      outer loop
         vertex 6.764090e-02 9.589208e-01 -1.349946e+00
         vertex -4.496902e-01 9.581655e-01 -1.351960e+00
         vertex 6.764090e-02 9.572767e-01 -1.354792e+00
      endloop
   endfacet
   facet normal -1.379417e-04 -9.714833e-01 -2.371079e-01
      outer loop
         vertex 6.764090e-02 9.574494e-01 -1.399420e+00
         vertex 4.498181e-01 9.584878e-01 -1.403897e+00
         vertex 4.498071e-01 9.573981e-01 -1.399432e+00
      endloop
   endfacet
   facet normal 9.999969e-01 -6.444150e-08 2.473734e-03
      outer loop
         vertex 4.498188e-01 9.744417e-01 -1.404190e+00
         vertex 4.497967e-01 9.741667e-01 -1.395251e+00
         vertex 4.498071e-01 9.573981e-01 -1.399432e+00
      endloop
   endfacet
   facet normal 9.999969e-01 7.433822e-07 2.476628e-03
      outer loop
         vertex 4.498181e-01 9.584878e-01 -1.403897e+00
         vertex 4.498188e-01 9.744417e-01 -1.404190e+00
         vertex 4.498071e-01 9.573981e-01 -1.399432e+00
      endloop
   endfacet
   facet normal -9.408503e-05 -9.723416e-01 -2.335632e-01
      outer loop
         vertex 6.764090e-02 9.589067e-01 -1.405487e+00
         vertex 4.498181e-01 9.584878e-01 -1.403897e+00
         vertex 6.764090e-02 9.574494e-01 -1.399420e+00
      endloop
   endfacet
   facet normal 1.189687e-04 -9.723416e-01 -2.335632e-01
      outer loop
         vertex -4.498119e-01 9.578079e-01 -1.401175e+00
         vertex 6.764090e-02 9.589067e-01 -1.405487e+00
         vertex 6.764090e-02 9.574494e-01 -1.399420e+00
      endloop
   endfacet
   facet normal -9.999969e-01 -2.349858e-07 2.474752e-03
      outer loop
         vertex -4.498193e-01 9.744407e-01 -1.404160e+00
         vertex -4.498225e-01 9.589067e-01 -1.405487e+00
         vertex -4.498119e-01 9.578079e-01 -1.401175e+00
      endloop
   endfacet
   facet normal -9.999969e-01 -3.718235e-07 2.473990e-03
      outer loop
         vertex -4.497971e-01 9.741655e-01 -1.395198e+00
         vertex -4.498193e-01 9.744407e-01 -1.404160e+00
         vertex -4.498119e-01 9.578079e-01 -1.401175e+00
      endloop
   endfacet
   facet normal 0.000000e+00 -9.690167e-01 -2.469952e-01
      outer loop
         vertex -4.498225e-01 9.589067e-01 -1.405487e+00
         vertex 6.764090e-02 9.589067e-01 -1.405487e+00
         vertex -4.498119e-01 9.578079e-01 -1.401175e+00
      endloop
   endfacet
   facet normal -8.532373e-05 -9.444301e-01 3.287124e-01
      outer loop
         vertex 4.496846e-01 9.588899e-01 -1.349935e+00
         vertex 6.764090e-02 9.589208e-01 -1.349946e+00
         vertex 4.496923e-01 9.578150e-01 -1.353024e+00
      endloop
   endfacet
   facet normal 9.999969e-01 1.881042e-06 2.479371e-03
      outer loop
         vertex 4.497078e-01 9.741219e-01 -1.359287e+00
         vertex 4.496846e-01 9.588899e-01 -1.349935e+00
         vertex 4.496923e-01 9.578150e-01 -1.353024e+00
      endloop
   endfacet
   facet normal -9.999969e-01 4.686654e-06 2.483789e-03
      outer loop
         vertex -4.496833e-01 9.591813e-01 -1.349178e+00
         vertex -4.497081e-01 9.741232e-01 -1.359213e+00
         vertex -4.496902e-01 9.581655e-01 -1.351960e+00
      endloop
   endfacet
   facet normal 3.605907e-05 -9.393343e-01 3.430030e-01
      outer loop
         vertex 6.764090e-02 9.589208e-01 -1.349946e+00
         vertex -4.496833e-01 9.591813e-01 -1.349178e+00
         vertex -4.496902e-01 9.581655e-01 -1.351960e+00
      endloop
   endfacet
   facet normal 3.281727e-05 -9.650299e-01 -2.621400e-01
      outer loop
         vertex 6.764090e-02 9.589067e-01 -1.405487e+00
         vertex 4.498291e-01 9.596948e-01 -1.408340e+00
         vertex 4.498181e-01 9.584878e-01 -1.403897e+00
      endloop
   endfacet
   facet normal 9.999969e-01 7.156968e-07 2.475123e-03
      outer loop
         vertex 4.498291e-01 9.596948e-01 -1.408340e+00
         vertex 4.498188e-01 9.744417e-01 -1.404190e+00
         vertex 4.498181e-01 9.584878e-01 -1.403897e+00
      endloop
   endfacet
   facet normal 3.424026e-05 -9.273939e-01 3.740864e-01
      outer loop
         vertex 4.496784e-01 9.599125e-01 -1.347400e+00
         vertex 6.764090e-02 9.591813e-01 -1.349178e+00
         vertex 4.496846e-01 9.588899e-01 -1.349935e+00
      endloop
   endfacet
   facet normal -8.532668e-05 -9.469782e-01 3.212977e-01
      outer loop
         vertex 6.764090e-02 9.591813e-01 -1.349178e+00
         vertex 6.764090e-02 9.589208e-01 -1.349946e+00
         vertex 4.496846e-01 9.588899e-01 -1.349935e+00
      endloop
   endfacet
   facet normal 9.999969e-01 -3.712020e-06 2.470261e-03
      outer loop
         vertex 4.497078e-01 9.741219e-01 -1.359287e+00
         vertex 4.496784e-01 9.599125e-01 -1.347400e+00
         vertex 4.496846e-01 9.588899e-01 -1.349935e+00
      endloop
   endfacet
   facet normal -9.999969e-01 -5.783187e-07 2.478774e-03
      outer loop
         vertex -4.498193e-01 9.744407e-01 -1.404160e+00
         vertex -4.498369e-01 9.605517e-01 -1.411281e+00
         vertex -4.498225e-01 9.589067e-01 -1.405487e+00
      endloop
   endfacet
   facet normal 7.051198e-05 -9.619898e-01 -2.730853e-01
      outer loop
         vertex -4.498369e-01 9.605517e-01 -1.411281e+00
         vertex 6.764090e-02 9.597500e-01 -1.408324e+00
         vertex -4.498225e-01 9.589067e-01 -1.405487e+00
      endloop
   endfacet
   facet normal 0.000000e+00 -9.585501e-01 -2.849241e-01
      outer loop
         vertex 6.764090e-02 9.597500e-01 -1.408324e+00
         vertex 6.764090e-02 9.589067e-01 -1.405487e+00
         vertex -4.498225e-01 9.589067e-01 -1.405487e+00
      endloop
   endfacet
   facet normal -1.506493e-04 -9.585501e-01 -2.849241e-01
      outer loop
         vertex 6.764090e-02 9.597500e-01 -1.408324e+00
         vertex 4.498291e-01 9.596948e-01 -1.408340e+00