solid RWflap1
   facet normal 5.951740e-05 -9.973077e-01 7.333088e-02
      outer loop
         vertex 4.507934e-01 7.614575e-01 -1.859100e+00
         vertex 6.764090e-02 7.611551e-01 -1.862901e+00
         vertex 4.508040e-01 7.611426e-01 -1.863383e+00
      endloop
   endfacet
   facet normal -6.473533e-05 -9.996737e-01 -2.554205e-02
      outer loop
         vertex 6.764090e-02 7.611551e-01 -1.862901e+00
         vertex 6.764090e-02 7.611674e-01 -1.863382e+00
         vertex 4.508040e-01 7.611426e-01 -1.863383e+00
      endloop
   endfacet
   facet normal -6.472578e-05 -9.999573e-01 -9.237264e-03
      outer loop
         vertex 6.764090e-02 7.611674e-01 -1.863382e+00
         vertex 4.508103e-01 7.611661e-01 -1.865931e+00
         vertex 4.508040e-01 7.611426e-01 -1.863383e+00
      endloop
   endfacet
   facet normal 9.999969e-01 1.418124e-06 2.470330e-03
      outer loop
         vertex 4.507894e-01 7.704181e-01 -1.857489e+00
         vertex 4.507934e-01 7.614575e-01 -1.859100e+00
         vertex 4.508040e-01 7.611426e-01 -1.863383e+00
      endloop
   endfacet
   facet normal 9.999969e-01 9.228435e-08 2.472416e-03
      outer loop
         vertex 4.507934e-01 7.713558e-01 -1.859104e+00
         vertex 4.507894e-01 7.704181e-01 -1.857489e+00
         vertex 4.508040e-01 7.611426e-01 -1.863383e+00
      endloop
   endfacet
   facet normal 9.999969e-01 -2.620425e-06 2.478891e-03
      outer loop
         vertex 4.508103e-01 7.611661e-01 -1.865931e+00
         vertex 4.507934e-01 7.713558e-01 -1.859104e+00
         vertex 4.508040e-01 7.611426e-01 -1.863383e+00
      endloop
   endfacet
   facet normal -9.999969e-01 -6.837487e-06 2.482981e-03
      outer loop
         vertex -4.508033e-01 7.611551e-01 -1.862901e+00
         vertex -4.507948e-01 7.715415e-01 -1.859464e+00
         vertex -4.508095e-01 7.611497e-01 -1.865422e+00
      endloop
   endfacet
   facet normal -9.999969e-01 -1.116463e-06 2.473002e-03
      outer loop
         vertex -4.507948e-01 7.715415e-01 -1.859464e+00
         vertex -4.508157e-01 7.612839e-01 -1.867928e+00
         vertex -4.508095e-01 7.611497e-01 -1.865422e+00
      endloop
   endfacet
   facet normal 0.000000e+00 -9.985692e-01 -5.347485e-02
      outer loop
         vertex -4.508157e-01 7.612839e-01 -1.867928e+00
         vertex 6.764090e-02 7.612839e-01 -1.867928e+00
         vertex -4.508095e-01 7.611497e-01 -1.865422e+00
      endloop
   endfacet
   facet normal 1.349489e-04 -9.996717e-01 -2.562135e-02
      outer loop
         vertex 6.764090e-02 7.612839e-01 -1.867928e+00
         vertex 6.764090e-02 7.611674e-01 -1.863382e+00
         vertex -4.508095e-01 7.611497e-01 -1.865422e+00
      endloop
   endfacet
   facet normal 2.567803e-05 -9.999977e-01 2.151842e-03
      outer loop
         vertex 6.764090e-02 7.611674e-01 -1.863382e+00
         vertex -4.508033e-01 7.611551e-01 -1.862901e+00
         vertex -4.508095e-01 7.611497e-01 -1.865422e+00
      endloop
   endfacet
   facet normal -9.999969e-01 -3.156986e-06 2.471860e-03
      outer loop
         vertex -4.507928e-01 7.615177e-01 -1.858657e+00
         vertex -4.507948e-01 7.715415e-01 -1.859464e+00
         vertex -4.508033e-01 7.611551e-01 -1.862901e+00
      endloop
   endfacet
   facet normal -2.786890e-08 -9.963700e-01 8.512849e-02
      outer loop
         vertex 6.764090e-02 7.614797e-01 -1.859102e+00
         vertex -4.507928e-01 7.615177e-01 -1.858657e+00
         vertex -4.508033e-01 7.611551e-01 -1.862901e+00
      endloop
   endfacet
   facet normal 0.000000e+00 -9.963703e-01 8.512472e-02
      outer loop
         vertex 6.764090e-02 7.611551e-01 -1.862901e+00
         vertex 6.764090e-02 7.614797e-01 -1.859102e+00
         vertex -4.508033e-01 7.611551e-01 -1.862901e+00
      endloop
   endfacet
   facet normal 0.000000e+00 -9.996737e-01 -2.554205e-02
      outer loop
         vertex 6.764090e-02 7.611674e-01 -1.863382e+00
         vertex 6.764090e-02 7.611551e-01 -1.862901e+00
         vertex -4.508033e-01 7.611551e-01 -1.862901e+00
      endloop
   endfacet
   facet normal -5.823180e-05 -9.963703e-01 8.512472e-02
      outer loop
         vertex 4.507934e-01 7.614575e-01 -1.859100e+00
         vertex 6.764090e-02 7.614797e-01 -1.859102e+00
         vertex 6.764090e-02 7.611551e-01 -1.862901e+00
      endloop
   endfacet
   facet normal -1.737348e-04 -9.996717e-01 -2.562135e-02
      outer loop
         vertex 6.764090e-02 7.611674e-01 -1.863382e+00
         vertex 6.764090e-02 7.612839e-01 -1.867928e+00
         vertex 4.508103e-01 7.611661e-01 -1.865931e+00
      endloop
   endfacet
   facet normal 2.876607e-05 -9.979261e-01 -6.436939e-02
      outer loop
         vertex 6.764090e-02 7.612839e-01 -1.867928e+00
         vertex 4.508166e-01 7.613296e-01 -1.868466e+00
         vertex 4.508103e-01 7.611661e-01 -1.865931e+00
      endloop
   endfacet
   facet normal 9.999969e-01 -8.432534e-08 2.475106e-03
      outer loop
         vertex 4.507977e-01 7.723694e-01 -1.860850e+00
         vertex 4.507934e-01 7.713558e-01 -1.859104e+00
         vertex 4.508103e-01 7.611661e-01 -1.865931e+00
      endloop
   endfacet
   facet normal 9.999970e-01 2.552622e-06 2.469293e-03
      outer loop
         vertex 4.508166e-01 7.613296e-01 -1.868466e+00
         vertex 4.507977e-01 7.723694e-01 -1.860850e+00
         vertex 4.508103e-01 7.611661e-01 -1.865931e+00
      endloop
   endfacet
   facet normal -9.999969e-01 -5.506751e-07 2.472317e-03
      outer loop
         vertex -4.507948e-01 7.715415e-01 -1.859464e+00
         vertex -4.508092e-01 7.749134e-01 -1.865298e+00
         vertex -4.508157e-01 7.612839e-01 -1.867928e+00
      endloop
   endfacet
   facet normal -9.999969e-01 -2.446757e-06 2.482139e-03
      outer loop
         vertex -4.508092e-01 7.749134e-01 -1.865298e+00
         vertex -4.508224e-01 7.615696e-01 -1.870618e+00
         vertex -4.508157e-01 7.612839e-01 -1.867928e+00
      endloop
   endfacet
   facet normal 2.566169e-05 -9.944022e-01 -1.056612e-01
      outer loop
         vertex -4.508224e-01 7.615696e-01 -1.870618e+00
         vertex 6.764090e-02 7.613541e-01 -1.868463e+00
         vertex -4.508157e-01 7.612839e-01 -1.867928e+00
      endloop
   endfacet
   facet normal 0.000000e+00 -9.914906e-01 -1.301784e-01
      outer loop
         vertex 6.764090e-02 7.613541e-01 -1.868463e+00
         vertex 6.764090e-02 7.612839e-01 -1.867928e+00
         vertex -4.508157e-01 7.612839e-01 -1.867928e+00
      endloop
   endfacet
   facet normal -6.431794e-05 -9.914906e-01 -1.301784e-01
      outer loop
         vertex 6.764090e-02 7.613541e-01 -1.868463e+00
         vertex 4.508166e-01 7.613296e-01 -1.868466e+00
         vertex 6.764090e-02 7.612839e-01 -1.867928e+00
      endloop
   endfacet
   facet normal -6.431217e-05 -9.932409e-01 -1.160708e-01
      outer loop
         vertex 6.764090e-02 7.613541e-01 -1.868463e+00
         vertex 4.508233e-01 7.616464e-01 -1.871176e+00
         vertex 4.508166e-01 7.613296e-01 -1.868466e+00
      endloop
   endfacet
   facet normal 9.999969e-01 5.717308e-07 2.472164e-03
      outer loop
         vertex 4.508001e-01 7.729224e-01 -1.861802e+00
         vertex 4.507977e-01 7.723694e-01 -1.860850e+00
         vertex 4.508166e-01 7.613296e-01 -1.868466e+00
      endloop
   endfacet
   facet normal 9.999969e-01 -4.466348e-07 2.473936e-03
      outer loop
         vertex 4.508233e-01 7.616464e-01 -1.871176e+00
         vertex 4.508001e-01 7.729224e-01 -1.861802e+00
         vertex 4.508166e-01 7.613296e-01 -1.868466e+00
      endloop
   endfacet
   facet normal -1.657157e-04 -9.914876e-01 -1.302010e-01
      outer loop
         vertex 6.764090e-02 7.619884e-01 -1.873294e+00
         vertex 4.508233e-01 7.616464e-01 -1.871176e+00
         vertex 6.764090e-02 7.613541e-01 -1.868463e+00
      endloop
   endfacet
   facet normal 1.288686e-04 -9.914876e-01 -1.302010e-01
      outer loop
         vertex -4.508224e-01 7.615696e-01 -1.870618e+00
         vertex 6.764090e-02 7.619884e-01 -1.873294e+00
         vertex 6.764090e-02 7.613541e-01 -1.868463e+00
      endloop
   endfacet
   facet normal 2.906582e-05 -9.872121e-01 1.594125e-01
      outer loop
         vertex 4.507882e-01 7.617952e-01 -1.857009e+00
         vertex 6.764090e-02 7.615177e-01 -1.858657e+00
         vertex 4.507934e-01 7.614575e-01 -1.859100e+00
      endloop
   endfacet
   facet normal -5.823180e-05 -9.963672e-01 8.516073e-02
      outer loop
         vertex 6.764090e-02 7.615177e-01 -1.858657e+00
         vertex 6.764090e-02 7.614797e-01 -1.859102e+00
         vertex 4.507934e-01 7.614575e-01 -1.859100e+00
      endloop
   endfacet
   facet normal 9.999969e-01 -4.734103e-07 2.479514e-03
      outer loop
         vertex 4.507822e-01 7.688138e-01 -1.854591e+00
         vertex 4.507882e-01 7.617952e-01 -1.857009e+00
         vertex 4.507934e-01 7.614575e-01 -1.859100e+00
      endloop
   endfacet
   facet normal 9.999969e-01 4.641410e-06 2.471168e-03
      outer loop
         vertex 4.507857e-01 7.695826e-01 -1.855980e+00
         vertex 4.507822e-01 7.688138e-01 -1.854591e+00
         vertex 4.507934e-01 7.614575e-01 -1.859100e+00
      endloop
   endfacet
   facet normal 9.999969e-01 -1.704195e-06 2.487692e-03
      outer loop
         vertex 4.507894e-01 7.704181e-01 -1.857489e+00
         vertex 4.507857e-01 7.695826e-01 -1.855980e+00
         vertex 4.507934e-01 7.614575e-01 -1.859100e+00
      endloop
   endfacet
   facet normal 0.000000e+00 -9.963672e-01 8.516073e-02
      outer loop
         vertex 6.764090e-02 7.615177e-01 -1.858657e+00
         vertex -4.507928e-01 7.615177e-01 -1.858657e+00
         vertex 6.764090e-02 7.614797e-01 -1.859102e+00
      endloop
   endfacet
   facet normal -9.999969e-01 -2.783008e-06 2.476505e-03
      outer loop
         vertex -4.507881e-01 7.618410e-01 -1.856779e+00
         vertex -4.507948e-01 7.715415e-01 -1.859464e+00
         vertex -4.507928e-01 7.615177e-01 -1.858657e+00
      endloop
   endfacet
   facet normal 0.000000e+00 -9.855040e-01 1.696523e-01
      outer loop
         vertex 6.764090e-02 7.615177e-01 -1.858657e+00
         vertex -4.507881e-01 7.618410e-01 -1.856779e+00
         vertex -4.507928e-01 7.615177e-01 -1.858657e+00
      endloop
   endfacet
   facet normal -1.584923e-04 -9.794472e-01 2.017009e-01
      outer loop
         vertex 4.507882e-01 7.617952e-01 -1.857009e+00
         vertex 6.764090e-02 7.622819e-01 -1.854946e+00
         vertex 6.764090e-02 7.615177e-01 -1.858657e+00
      endloop
   endfacet
   facet normal -2.615012e-08 -9.794472e-01 2.017009e-01
      outer loop
         vertex 6.764090e-02 7.622819e-01 -1.854946e+00
         vertex -4.507836e-01 7.622862e-01 -1.854925e+00
         vertex 6.764090e-02 7.615177e-01 -1.858657e+00
      endloop
   endfacet
   facet normal 2.395102e-04 -9.723525e-01 2.335178e-01
      outer loop
         vertex -4.507836e-01 7.622862e-01 -1.854925e+00
         vertex -4.507881e-01 7.618410e-01 -1.856779e+00
         vertex 6.764090e-02 7.615177e-01 -1.858657e+00
      endloop
   endfacet
   facet normal -9.999969e-01 1.320754e-06 2.472690e-03
      outer loop
         vertex -4.508092e-01 7.749134e-01 -1.865298e+00
         vertex -4.508290e-01 7.619884e-01 -1.873294e+00
         vertex -4.508224e-01 7.615696e-01 -1.870618e+00
      endloop
   endfacet
   facet normal 0.000000e+00 -9.879740e-01 -1.546199e-01
      outer loop
         vertex -4.508290e-01 7.619884e-01 -1.873294e+00
         vertex 6.764090e-02 7.619884e-01 -1.873294e+00
         vertex -4.508224e-01 7.615696e-01 -1.870618e+00
      endloop
   endfacet
   facet normal 2.783432e-05 -9.863925e-01 -1.644078e-01
      outer loop
         vertex 6.764090e-02 7.619884e-01 -1.873294e+00
         vertex 4.508299e-01 7.620959e-01 -1.873873e+00
         vertex 4.508233e-01 7.616464e-01 -1.871176e+00
      endloop
   endfacet
   facet normal 9.999969e-01 -1.873275e-07 2.473624e-03
      outer loop
         vertex 4.508293e-01 7.797695e-01 -1.873597e+00
         vertex 4.508001e-01 7.729224e-01 -1.861802e+00
         vertex 4.508233e-01 7.616464e-01 -1.871176e+00
      endloop
   endfacet
   facet normal 9.999969e-01 1.793390e-08 2.475161e-03
      outer loop
         vertex 4.508299e-01 7.620959e-01 -1.873873e+00
         vertex 4.508293e-01 7.797695e-01 -1.873597e+00
         vertex 4.508233e-01 7.616464e-01 -1.871176e+00
      endloop
   endfacet
   facet normal -3.812538e-06 -9.734231e-01 2.290142e-01
      outer loop
         vertex 4.507831e-01 7.622805e-01 -1.854946e+00
         vertex 6.764090e-02 7.622819e-01 -1.854946e+00
         vertex 4.507882e-01 7.617952e-01 -1.857009e+00
      endloop
   endfacet
   facet normal 9.999970e-01 5.225709e-06 2.469326e-03
      outer loop
         vertex 4.507789e-01 7.680745e-01 -1.853256e+00
         vertex 4.507831e-01 7.622805e-01 -1.854946e+00
         vertex 4.507882e-01 7.617952e-01 -1.857009e+00
      endloop
   endfacet
   facet normal 9.999969e-01 5.540731e-08 2.477978e-03
      outer loop
         vertex 4.507822e-01 7.688138e-01 -1.854591e+00
         vertex 4.507789e-01 7.680745e-01 -1.853256e+00
         vertex 4.507882e-01 7.617952e-01 -1.857009e+00
      endloop
   endfacet
   facet normal -9.999969e-01 -2.865518e-06 2.476207e-03
      outer loop
         vertex -4.507836e-01 7.622862e-01 -1.854925e+00
         vertex -4.507948e-01 7.715415e-01 -1.859464e+00
         vertex -4.507881e-01 7.618410e-01 -1.856779e+00
      endloop
   endfacet
   facet normal -9.999970e-01 3.741242e-06 2.468777e-03
      outer loop
         vertex -4.508092e-01 7.749134e-01 -1.865298e+00
         vertex -4.508362e-01 7.625820e-01 -1.876192e+00
         vertex -4.508290e-01 7.619884e-01 -1.873294e+00
      endloop
   endfacet
   facet normal 2.602761e-05 -9.796611e-01 -2.006591e-01
      outer loop
         vertex -4.508362e-01 7.625820e-01 -1.876192e+00
         vertex 6.764090e-02 7.621199e-01 -1.873868e+00
         vertex -4.508290e-01 7.619884e-01 -1.873294e+00
      endloop
   endfacet
   facet normal 0.000000e+00 -9.748089e-01 -2.230418e-01
      outer loop
         vertex 6.764090e-02 7.621199e-01 -1.873868e+00
         vertex 6.764090e-02 7.619884e-01 -1.873294e+00
         vertex -4.508290e-01 7.619884e-01 -1.873294e+00
      endloop
   endfacet
   facet normal -6.414729e-05 -9.748089e-01 -2.230418e-01
      outer loop
         vertex 6.764090e-02 7.621199e-01 -1.873868e+00
         vertex 4.508299e-01 7.620959e-01 -1.873873e+00
         vertex 6.764090e-02 7.619884e-01 -1.873294e+00
      endloop
   endfacet
   facet normal -6.414324e-05 -9.772428e-01 -2.121236e-01
      outer loop
         vertex 6.764090e-02 7.621199e-01 -1.873868e+00
         vertex 4.508378e-01 7.627903e-01 -1.877072e+00
         vertex 4.508299e-01 7.620959e-01 -1.873873e+00
      endloop
   endfacet
   facet normal 9.999970e-01 1.181399e-07 2.468763e-03
      outer loop
         vertex 4.508378e-01 7.627903e-01 -1.877072e+00
         vertex 4.508293e-01 7.797695e-01 -1.873597e+00
         vertex 4.508299e-01 7.620959e-01 -1.873873e+00
      endloop
   endfacet
   facet normal -1.600362e-04 -9.748002e-01 -2.230795e-01
      outer loop
         vertex 6.764090e-02 7.633092e-01 -1.879065e+00
         vertex 4.508378e-01 7.627903e-01 -1.877072e+00
         vertex 6.764090e-02 7.621199e-01 -1.873868e+00
      endloop
   endfacet
   facet normal 1.308432e-04 -9.748002e-01 -2.230795e-01
      outer loop
         vertex -4.508362e-01 7.625820e-01 -1.876192e+00
         vertex 6.764090e-02 7.633092e-01 -1.879065e+00
         vertex 6.764090e-02 7.621199e-01 -1.873868e+00
      endloop
   endfacet
   facet normal 2.003578e-06 -9.527474e-01 3.037638e-01
      outer loop
         vertex 4.507793e-01 7.627701e-01 -1.853410e+00
         vertex 6.764090e-02 7.622862e-01 -1.854925e+00
         vertex 4.507831e-01 7.622805e-01 -1.854946e+00
      endloop
   endfacet
   facet normal -3.813789e-06 -9.793181e-01 2.023268e-01
      outer loop
         vertex 6.764090e-02 7.622862e-01 -1.854925e+00
         vertex 6.764090e-02 7.622819e-01 -1.854946e+00
         vertex 4.507831e-01 7.622805e-01 -1.854946e+00
      endloop
   endfacet
   facet normal 9.999970e-01 5.401058e-06 2.468724e-03
      outer loop
         vertex 4.507789e-01 7.680745e-01 -1.853256e+00
         vertex 4.507758e-01 7.673656e-01 -1.851987e+00
         vertex 4.507831e-01 7.622805e-01 -1.854946e+00
      endloop
   endfacet
   facet normal 9.999969e-01 -4.405565e-06 2.485580e-03
      outer loop
         vertex 4.507758e-01 7.673656e-01 -1.851987e+00
         vertex 4.507793e-01 7.627701e-01 -1.853410e+00
         vertex 4.507831e-01 7.622805e-01 -1.854946e+00
      endloop
   endfacet
   facet normal 0.000000e+00 -9.793181e-01 2.023268e-01
      outer loop
         vertex 6.764090e-02 7.622862e-01 -1.854925e+00
         vertex -4.507836e-01 7.622862e-01 -1.854925e+00
         vertex 6.764090e-02 7.622819e-01 -1.854946e+00
      endloop
   endfacet
   facet normal -9.999970e-01 -1.960291e-05 2.442076e-03
      outer loop
         vertex -4.507811e-01 7.626394e-01 -1.853897e+00
         vertex -4.507948e-01 7.715415e-01 -1.859464e+00
         vertex -4.507836e-01 7.622862e-01 -1.854925e+00
      endloop
   endfacet
   facet normal 0.000000e+00 -9.561303e-01 2.929418e-01
      outer loop
         vertex 6.764090e-02 7.622862e-01 -1.854925e+00
         vertex 6.764090e-02 7.626048e-01 -1.853885e+00
         vertex -4.507836e-01 7.622862e-01 -1.854925e+00
      endloop
   endfacet
   facet normal -7.062775e-05 -9.457255e-01 3.249665e-01
      outer loop
         vertex 6.764090e-02 7.626048e-01 -1.853885e+00
         vertex -4.507811e-01 7.626394e-01 -1.853897e+00
         vertex -4.507836e-01 7.622862e-01 -1.854925e+00
      endloop
   endfacet
   facet normal 4.907148e-05 -9.561303e-01 2.929418e-01
      outer loop
         vertex 4.507793e-01 7.627701e-01 -1.853410e+00
         vertex 6.764090e-02 7.626048e-01 -1.853885e+00
         vertex 6.764090e-02 7.622862e-01 -1.854925e+00
      endloop
   endfacet
   facet normal -9.999970e-01 -8.732976e-07 2.468421e-03
      outer loop
         vertex -4.508373e-01 7.815702e-01 -1.876644e+00
         vertex -4.508433e-01 7.633092e-01 -1.879065e+00
         vertex -4.508362e-01 7.625820e-01 -1.876192e+00
      endloop
   endfacet
   facet normal -9.999969e-01 -7.439339e-07 2.473854e-03
      outer loop
         vertex -4.508092e-01 7.749134e-01 -1.865298e+00
         vertex -4.508373e-01 7.815702e-01 -1.876644e+00
         vertex -4.508362e-01 7.625820e-01 -1.876192e+00
      endloop
   endfacet
   facet normal 0.000000e+00 -9.694387e-01 -2.453336e-01
      outer loop
         vertex -4.508433e-01 7.633092e-01 -1.879065e+00
         vertex 6.764090e-02 7.633092e-01 -1.879065e+00
         vertex -4.508362e-01 7.625820e-01 -1.876192e+00
      endloop
   endfacet
   facet normal -8.710633e-05 -9.206537e-01 3.903802e-01
      outer loop
         vertex 4.507793e-01 7.627701e-01 -1.853410e+00
         vertex 6.764090e-02 7.634327e-01 -1.851933e+00
         vertex 6.764090e-02 7.626048e-01 -1.853885e+00
      endloop
   endfacet
   facet normal -7.062775e-05 -9.457203e-01 3.249817e-01
      outer loop
         vertex -4.507778e-01 7.630885e-01 -1.852591e+00
         vertex -4.507811e-01 7.626394e-01 -1.853897e+00
         vertex 6.764090e-02 7.626048e-01 -1.853885e+00
      endloop
   endfacet
   facet normal 1.161128e-04 -9.206537e-01 3.903802e-01
      outer loop
         vertex 6.764090e-02 7.634327e-01 -1.851933e+00
         vertex -4.507778e-01 7.630885e-01 -1.852591e+00
         vertex 6.764090e-02 7.626048e-01 -1.853885e+00
      endloop
   endfacet
   facet normal -9.999969e-01 -1.963880e-07 2.473110e-03
      outer loop
         vertex -4.507803e-01 7.682521e-01 -1.853584e+00
         vertex -4.507948e-01 7.715415e-01 -1.859464e+00
         vertex -4.507811e-01 7.626394e-01 -1.853897e+00
      endloop
   endfacet
   facet normal -9.999969e-01 -2.223108e-06 2.509365e-03
      outer loop
         vertex -4.507778e-01 7.630885e-01 -1.852591e+00
         vertex -4.507803e-01 7.682521e-01 -1.853584e+00
         vertex -4.507811e-01 7.626394e-01 -1.853897e+00
      endloop
   endfacet
   facet normal -1.264102e-04 -9.242460e-01 3.817975e-01
      outer loop
         vertex 4.507756e-01 7.633881e-01 -1.851914e+00
         vertex 6.764090e-02 7.634327e-01 -1.851933e+00
         vertex 4.507793e-01 7.627701e-01 -1.853410e+00
      endloop
   endfacet
   facet normal 9.999969e-01 4.751894e-07 2.469817e-03
      outer loop
         vertex 4.507758e-01 7.673656e-01 -1.851987e+00
         vertex 4.507756e-01 7.633881e-01 -1.851914e+00
         vertex 4.507793e-01 7.627701e-01 -1.853410e+00
      endloop
   endfacet
   facet normal 4.905155e-05 -9.653818e-01 -2.608409e-01
      outer loop
         vertex 6.764090e-02 7.633092e-01 -1.879065e+00
         vertex 4.508457e-01 7.636430e-01 -1.880228e+00
         vertex 4.508378e-01 7.627903e-01 -1.877072e+00
      endloop
   endfacet
   facet normal 9.999969e-01 -9.359177e-07 2.473912e-03
      outer loop
         vertex 4.508457e-01 7.636430e-01 -1.880228e+00
         vertex 4.508293e-01 7.797695e-01 -1.873597e+00
         vertex 4.508378e-01 7.627903e-01 -1.877072e+00
      endloop
   endfacet
   facet normal -9.999969e-01 -6.407217e-06 2.487609e-03
      outer loop
         vertex -4.507742e-01 7.668380e-01 -1.851143e+00
         vertex -4.507803e-01 7.682521e-01 -1.853584e+00
         vertex -4.507778e-01 7.630885e-01 -1.852591e+00
      endloop
   endfacet
   facet normal -9.999970e-01 1.386174e-05 2.435098e-03
      outer loop
         vertex -4.507747e-01 7.636817e-01 -1.851346e+00
         vertex -4.507742e-01 7.668380e-01 -1.851143e+00
         vertex -4.507778e-01 7.630885e-01 -1.852591e+00
      endloop
   endfacet
   facet normal 5.374712e-05 -9.027463e-01 4.301734e-01
      outer loop
         vertex 6.764090e-02 7.634327e-01 -1.851933e+00
         vertex -4.507747e-01 7.636817e-01 -1.851346e+00
         vertex -4.507778e-01 7.630885e-01 -1.852591e+00
      endloop
   endfacet
   facet normal -9.999969e-01 -2.205088e-06 2.478465e-03
      outer loop
         vertex -4.508373e-01 7.815702e-01 -1.876644e+00
         vertex -4.508510e-01 7.642571e-01 -1.882190e+00
         vertex -4.508433e-01 7.633092e-01 -1.879065e+00
      endloop
   endfacet
   facet normal 5.415172e-05 -9.569542e-01 -2.902390e-01
      outer loop
         vertex -4.508510e-01 7.642571e-01 -1.882190e+00
         vertex 6.764090e-02 7.636870e-01 -1.880214e+00
         vertex -4.508433e-01 7.633092e-01 -1.879065e+00
      endloop
   endfacet
   facet normal 0.000000e+00 -9.499592e-01 -3.123741e-01
      outer loop
         vertex 6.764090e-02 7.636870e-01 -1.880214e+00
         vertex 6.764090e-02 7.633092e-01 -1.879065e+00
         vertex -4.508433e-01 7.633092e-01 -1.879065e+00
      endloop
   endfacet
   facet normal -1.208529e-04 -9.499592e-01 -3.123741e-01
      outer loop
         vertex 6.764090e-02 7.636870e-01 -1.880214e+00
         vertex 4.508457e-01 7.636430e-01 -1.880228e+00
         vertex 6.764090e-02 7.633092e-01 -1.879065e+00
      endloop
   endfacet
   facet normal 9.954418e-05 -8.595449e-01 5.110602e-01
      outer loop
         vertex 4.507725e-01 7.641420e-01 -1.850646e+00
         vertex 6.764090e-02 7.636817e-01 -1.851346e+00
         vertex 4.507756e-01 7.633881e-01 -1.851914e+00
      endloop
   endfacet
   facet normal -1.264162e-04 -9.206723e-01 3.903363e-01
      outer loop
         vertex 6.764090e-02 7.636817e-01 -1.851346e+00
         vertex 6.764090e-02 7.634327e-01 -1.851933e+00
         vertex 4.507756e-01 7.633881e-01 -1.851914e+00
      endloop
   endfacet
   facet normal 9.999970e-01 4.672988e-06 2.465189e-03
      outer loop
         vertex 4.507728e-01 7.665715e-01 -1.850772e+00
         vertex 4.507725e-01 7.641420e-01 -1.850646e+00
         vertex 4.507756e-01 7.633881e-01 -1.851914e+00
      endloop
   endfacet
   facet normal 9.999969e-01 5.988790e-07 2.476541e-03
      outer loop
         vertex 4.507758e-01 7.673656e-01 -1.851987e+00
         vertex 4.507728e-01 7.665715e-01 -1.850772e+00
         vertex 4.507756e-01 7.633881e-01 -1.851914e+00
      endloop
   endfacet
   facet normal 0.000000e+00 -9.206723e-01 3.903363e-01
      outer loop
         vertex 6.764090e-02 7.636817e-01 -1.851346e+00
         vertex -4.507747e-01 7.636817e-01 -1.851346e+00
         vertex 6.764090e-02 7.634327e-01 -1.851933e+00
      endloop
   endfacet
   facet normal -1.208508e-04 -9.516714e-01 -3.071180e-01
      outer loop
         vertex 6.764090e-02 7.636870e-01 -1.880214e+00
         vertex 4.508534e-01 7.646525e-01 -1.883357e+00
         vertex 4.508457e-01 7.636430e-01 -1.880228e+00
      endloop
   endfacet
   facet normal 9.999969e-01 -1.941969e-06 2.476358e-03
      outer loop
         vertex 4.508534e-01 7.646525e-01 -1.883357e+00
         vertex 4.508293e-01 7.797695e-01 -1.873597e+00
         vertex 4.508457e-01 7.636430e-01 -1.880228e+00
      endloop
   endfacet
   facet normal -9.999969e-01 1.086662e-05 2.481821e-03
      outer loop
         vertex -4.507726e-01 7.642798e-01 -1.850484e+00
         vertex -4.507742e-01 7.668380e-01 -1.851143e+00
         vertex -4.507747e-01 7.636817e-01 -1.851346e+00
      endloop
   endfacet
   facet normal 0.000000e+00 -8.216017e-01 5.700620e-01
      outer loop
         vertex 6.764090e-02 7.636817e-01 -1.851346e+00
         vertex -4.507726e-01 7.642798e-01 -1.850484e+00
         vertex -4.507747e-01 7.636817e-01 -1.851346e+00
      endloop
   endfacet
   facet normal -5.377154e-05 -8.215983e-01 5.700668e-01
      outer loop
         vertex 4.507725e-01 7.641420e-01 -1.850646e+00
         vertex 6.764090e-02 7.641589e-01 -1.850658e+00
         vertex 6.764090e-02 7.636817e-01 -1.851346e+00
      endloop
   endfacet
   facet normal 1.195272e-08 -8.215983e-01 5.700668e-01
      outer loop
         vertex 6.764090e-02 7.641589e-01 -1.850658e+00
         vertex -4.507726e-01 7.642798e-01 -1.850484e+00
         vertex 6.764090e-02 7.636817e-01 -1.851346e+00
      endloop
   endfacet
   facet normal -1.682563e-04 -9.499597e-01 -3.123726e-01
      outer loop
         vertex 6.764090e-02 7.653449e-01 -1.885256e+00
         vertex 4.508534e-01 7.646525e-01 -1.883357e+00
         vertex 6.764090e-02 7.636870e-01 -1.880214e+00
      endloop
   endfacet
   facet normal 1.462159e-04 -9.499597e-01 -3.123726e-01
      outer loop
         vertex -4.508510e-01 7.642571e-01 -1.882190e+00
         vertex 6.764090e-02 7.653449e-01 -1.885256e+00
         vertex 6.764090e-02 7.636870e-01 -1.880214e+00
      endloop
   endfacet
   facet normal 3.710865e-05 -7.177789e-01 6.962711e-01
      outer loop
         vertex 4.507715e-01 7.645096e-01 -1.850267e+00
         vertex 6.764090e-02 7.642798e-01 -1.850484e+00
         vertex 4.507725e-01 7.641420e-01 -1.850646e+00
      endloop
   endfacet
   facet normal -5.377154e-05 -8.216150e-01 5.700428e-01
      outer loop
         vertex 6.764090e-02 7.642798e-01 -1.850484e+00
         vertex 6.764090e-02 7.641589e-01 -1.850658e+00
         vertex 4.507725e-01 7.641420e-01 -1.850646e+00
      endloop
   endfacet
   facet normal 9.999969e-01 6.984124e-06 2.509930e-03
      outer loop
         vertex 4.507728e-01 7.665715e-01 -1.850772e+00
         vertex 4.507715e-01 7.645096e-01 -1.850267e+00
         vertex 4.507725e-01 7.641420e-01 -1.850646e+00
      endloop
   endfacet
   facet normal 0.000000e+00 -8.216150e-01 5.700428e-01
      outer loop
         vertex 6.764090e-02 7.642798e-01 -1.850484e+00
         vertex -4.507726e-01 7.642798e-01 -1.850484e+00
         vertex 6.764090e-02 7.641589e-01 -1.850658e+00
      endloop
   endfacet
   facet normal -9.999970e-01 6.162624e-07 2.469659e-03
      outer loop
         vertex -4.508373e-01 7.815702e-01 -1.876644e+00
         vertex -4.508586e-01 7.653449e-01 -1.885256e+00
         vertex -4.508510e-01 7.642571e-01 -1.882190e+00
      endloop
   endfacet
   facet normal 0.000000e+00 -9.424209e-01 -3.344290e-01
      outer loop
         vertex -4.508586e-01 7.653449e-01 -1.885256e+00
         vertex 6.764090e-02 7.653449e-01 -1.885256e+00
         vertex -4.508510e-01 7.642571e-01 -1.882190e+00
      endloop
   endfacet
   facet normal -9.999971e-01 -1.145981e-05 2.395235e-03
      outer loop
         vertex -4.507719e-01 7.646233e-01 -1.850183e+00
         vertex -4.507742e-01 7.668380e-01 -1.851143e+00
         vertex -4.507726e-01 7.642798e-01 -1.850484e+00
      endloop
   endfacet
   facet normal 0.000000e+00 -6.581900e-01 7.528518e-01
      outer loop
         vertex 6.764090e-02 7.642798e-01 -1.850484e+00
         vertex -4.507719e-01 7.646233e-01 -1.850183e+00
         vertex -4.507726e-01 7.642798e-01 -1.850484e+00
      endloop
   endfacet
   facet normal -3.054335e-05 -6.582370e-01 7.528108e-01
      outer loop
         vertex 4.507715e-01 7.645096e-01 -1.850267e+00
         vertex 6.764090e-02 7.645173e-01 -1.850276e+00
         vertex 6.764090e-02 7.642798e-01 -1.850484e+00
      endloop
   endfacet
   facet normal -5.490048e-08 -6.582370e-01 7.528108e-01
      outer loop
         vertex 6.764090e-02 7.645173e-01 -1.850276e+00
         vertex -4.507719e-01 7.646233e-01 -1.850183e+00