solid RWflap2
   facet normal -3.464961e-05 -9.901193e-01 1.402272e-01
      outer loop
         vertex 4.510026e-01 8.513113e-01 -1.943665e+00
         vertex 6.764090e-02 8.513243e-01 -1.943668e+00
         vertex 4.510050e-01 8.511741e-01 -1.944634e+00
      endloop
   endfacet
   facet normal 1.822002e-04 -9.746146e-01 2.238892e-01
      outer loop
         vertex 6.764090e-02 8.513243e-01 -1.943668e+00
         vertex 6.764090e-02 8.512208e-01 -1.944119e+00
         vertex 4.510050e-01 8.511741e-01 -1.944634e+00
      endloop
   endfacet
   facet normal -1.141234e-04 -9.999833e-01 5.778914e-03
      outer loop
         vertex 6.764090e-02 8.512208e-01 -1.944119e+00
         vertex 6.764090e-02 8.512178e-01 -1.944635e+00
         vertex 4.510050e-01 8.511741e-01 -1.944634e+00
      endloop
   endfacet
   facet normal -1.140713e-04 -9.997263e-01 -2.339573e-02
      outer loop
         vertex 6.764090e-02 8.512178e-01 -1.944635e+00
         vertex 4.510083e-01 8.512050e-01 -1.945954e+00
         vertex 4.510050e-01 8.511741e-01 -1.944634e+00
      endloop
   endfacet
   facet normal 9.999970e-01 5.104886e-06 2.460202e-03
      outer loop
         vertex 4.510017e-01 8.542205e-01 -1.943296e+00
         vertex 4.510026e-01 8.513113e-01 -1.943665e+00
         vertex 4.510050e-01 8.511741e-01 -1.944634e+00
      endloop
   endfacet
   facet normal 9.999969e-01 -5.619211e-06 2.484613e-03
      outer loop
         vertex 4.510083e-01 8.512050e-01 -1.945954e+00
         vertex 4.510017e-01 8.542205e-01 -1.943296e+00
         vertex 4.510050e-01 8.511741e-01 -1.944634e+00
      endloop
   endfacet
   facet normal -1.337478e-05 -9.999828e-01 5.873107e-03
      outer loop
         vertex 6.764090e-02 8.512178e-01 -1.944635e+00
         vertex 6.764090e-02 8.512097e-01 -1.946015e+00
         vertex 4.510083e-01 8.512050e-01 -1.945954e+00
      endloop
   endfacet
   facet normal 5.516352e-06 -9.937011e-01 -1.120627e-01
      outer loop
         vertex 6.764090e-02 8.512097e-01 -1.946015e+00
         vertex 4.510115e-01 8.513533e-01 -1.947269e+00
         vertex 4.510083e-01 8.512050e-01 -1.945954e+00
      endloop
   endfacet
   facet normal 9.999969e-01 3.624297e-07 2.477826e-03
      outer loop
         vertex 4.510041e-01 8.557111e-01 -1.944246e+00
         vertex 4.510017e-01 8.542205e-01 -1.943296e+00
         vertex 4.510083e-01 8.512050e-01 -1.945954e+00
      endloop
   endfacet
   facet normal 9.999969e-01 3.081092e-06 2.470651e-03
      outer loop
         vertex 4.510115e-01 8.513533e-01 -1.947269e+00
         vertex 4.510041e-01 8.557111e-01 -1.944246e+00
         vertex 4.510083e-01 8.512050e-01 -1.945954e+00
      endloop
   endfacet
   facet normal -9.999969e-01 -1.541157e-05 2.485167e-03
      outer loop
         vertex -4.510028e-01 8.546372e-01 -1.943547e+00
         vertex -4.510133e-01 8.514327e-01 -1.947764e+00
         vertex -4.510089e-01 8.512097e-01 -1.946015e+00
      endloop
   endfacet
   facet normal -9.999969e-01 -1.867003e-05 2.489693e-03
      outer loop
         vertex -4.510011e-01 8.533365e-01 -1.942839e+00
         vertex -4.510028e-01 8.546372e-01 -1.943547e+00
         vertex -4.510089e-01 8.512097e-01 -1.946015e+00
      endloop
   endfacet
   facet normal -9.999970e-01 3.764048e-05 2.451986e-03
      outer loop
         vertex -4.510043e-01 8.512208e-01 -1.944119e+00
         vertex -4.510011e-01 8.533365e-01 -1.942839e+00
         vertex -4.510089e-01 8.512097e-01 -1.946015e+00
      endloop
   endfacet
   facet normal 2.624536e-04 -9.919791e-01 -1.264019e-01
      outer loop
         vertex -4.510133e-01 8.514327e-01 -1.947764e+00
         vertex 6.764090e-02 8.517650e-01 -1.949296e+00
         vertex -4.510089e-01 8.512097e-01 -1.946015e+00
      endloop
   endfacet
   facet normal -6.278565e-08 -9.859762e-01 -1.668859e-01
      outer loop
         vertex 6.764090e-02 8.517650e-01 -1.949296e+00
         vertex 6.764090e-02 8.514200e-01 -1.947257e+00
         vertex -4.510089e-01 8.512097e-01 -1.946015e+00
      endloop
   endfacet
   facet normal 0.000000e+00 -9.859805e-01 -1.668604e-01
      outer loop
         vertex 6.764090e-02 8.514200e-01 -1.947257e+00
         vertex 6.764090e-02 8.512097e-01 -1.946015e+00
         vertex -4.510089e-01 8.512097e-01 -1.946015e+00
      endloop
   endfacet
   facet normal 0.000000e+00 -9.999828e-01 5.873107e-03
      outer loop
         vertex 6.764090e-02 8.512097e-01 -1.946015e+00
         vertex 6.764090e-02 8.512178e-01 -1.944635e+00
         vertex -4.510089e-01 8.512097e-01 -1.946015e+00
      endloop
   endfacet
   facet normal 6.818406e-08 -9.999829e-01 5.847485e-03
      outer loop
         vertex 6.764090e-02 8.512178e-01 -1.944635e+00
         vertex -4.510043e-01 8.512208e-01 -1.944119e+00
         vertex -4.510089e-01 8.512097e-01 -1.946015e+00
      endloop
   endfacet
   facet normal -1.765942e-04 -9.859805e-01 -1.668604e-01
      outer loop
         vertex 6.764090e-02 8.514200e-01 -1.947257e+00
         vertex 4.510115e-01 8.513533e-01 -1.947269e+00
         vertex 6.764090e-02 8.512097e-01 -1.946015e+00
      endloop
   endfacet
   facet normal 0.000000e+00 -9.999833e-01 5.778914e-03
      outer loop
         vertex 6.764090e-02 8.512208e-01 -1.944119e+00
         vertex -4.510043e-01 8.512208e-01 -1.944119e+00
         vertex 6.764090e-02 8.512178e-01 -1.944635e+00
      endloop
   endfacet
   facet normal -9.999968e-01 -4.698893e-05 2.537883e-03
      outer loop
         vertex -4.510008e-01 8.521234e-01 -1.942717e+00
         vertex -4.510006e-01 8.524419e-01 -1.942664e+00
         vertex -4.510043e-01 8.512208e-01 -1.944119e+00
      endloop
   endfacet
   facet normal -9.999970e-01 3.237292e-05 2.460691e-03
      outer loop
         vertex -4.510007e-01 8.528261e-01 -1.942687e+00
         vertex -4.510011e-01 8.533365e-01 -1.942839e+00
         vertex -4.510043e-01 8.512208e-01 -1.944119e+00
      endloop
   endfacet
   facet normal -9.999969e-01 -5.257515e-06 2.502868e-03
      outer loop
         vertex -4.510006e-01 8.524419e-01 -1.942664e+00
         vertex -4.510007e-01 8.528261e-01 -1.942687e+00
         vertex -4.510043e-01 8.512208e-01 -1.944119e+00
      endloop
   endfacet
   facet normal -9.999970e-01 6.942077e-05 2.462965e-03
      outer loop
         vertex -4.510028e-01 8.513590e-01 -1.943518e+00
         vertex -4.510008e-01 8.521234e-01 -1.942717e+00
         vertex -4.510043e-01 8.512208e-01 -1.944119e+00
      endloop
   endfacet
   facet normal 0.000000e+00 -9.746146e-01 2.238892e-01
      outer loop
         vertex 6.764090e-02 8.512208e-01 -1.944119e+00
         vertex 6.764090e-02 8.513243e-01 -1.943668e+00
         vertex -4.510043e-01 8.512208e-01 -1.944119e+00
      endloop
   endfacet
   facet normal -1.062395e-07 -9.745879e-01 2.240054e-01
      outer loop
         vertex 6.764090e-02 8.513243e-01 -1.943668e+00
         vertex -4.510028e-01 8.513590e-01 -1.943518e+00
         vertex -4.510043e-01 8.512208e-01 -1.944119e+00
      endloop
   endfacet
   facet normal 3.093346e-05 -9.253804e-01 3.790397e-01
      outer loop
         vertex 4.510016e-01 8.514821e-01 -1.943248e+00
         vertex 6.764090e-02 8.513590e-01 -1.943518e+00
         vertex 4.510026e-01 8.513113e-01 -1.943665e+00
      endloop
   endfacet
   facet normal -3.477446e-05 -9.745080e-01 2.243527e-01
      outer loop
         vertex 6.764090e-02 8.513590e-01 -1.943518e+00
         vertex 6.764090e-02 8.513243e-01 -1.943668e+00
         vertex 4.510026e-01 8.513113e-01 -1.943665e+00
      endloop
   endfacet
   facet normal 9.999969e-01 -8.957688e-08 2.501101e-03
      outer loop
         vertex 4.510017e-01 8.542205e-01 -1.943296e+00
         vertex 4.510016e-01 8.514821e-01 -1.943248e+00
         vertex 4.510026e-01 8.513113e-01 -1.943665e+00
      endloop
   endfacet
   facet normal 0.000000e+00 -9.745080e-01 2.243527e-01
      outer loop
         vertex 6.764090e-02 8.513590e-01 -1.943518e+00
         vertex -4.510028e-01 8.513590e-01 -1.943518e+00
         vertex 6.764090e-02 8.513243e-01 -1.943668e+00
      endloop
   endfacet
   facet normal -1.765942e-04 -9.859762e-01 -1.668859e-01
      outer loop
         vertex 6.764090e-02 8.514200e-01 -1.947257e+00
         vertex 6.764090e-02 8.517650e-01 -1.949296e+00
         vertex 4.510115e-01 8.513533e-01 -1.947269e+00
      endloop
   endfacet
   facet normal -3.531180e-05 -9.812674e-01 -1.926507e-01
      outer loop
         vertex 6.764090e-02 8.517650e-01 -1.949296e+00
         vertex 4.510165e-01 8.517517e-01 -1.949298e+00
         vertex 4.510115e-01 8.513533e-01 -1.947269e+00
      endloop
   endfacet
   facet normal 9.999970e-01 4.748023e-06 2.468247e-03
      outer loop
         vertex 4.510165e-01 8.517517e-01 -1.949298e+00
         vertex 4.510041e-01 8.557111e-01 -1.944246e+00
         vertex 4.510115e-01 8.513533e-01 -1.947269e+00
      endloop
   endfacet
   facet normal -9.999970e-01 8.183531e-05 2.451123e-03
      outer loop
         vertex -4.510019e-01 8.515368e-01 -1.943159e+00
         vertex -4.510008e-01 8.521234e-01 -1.942717e+00
         vertex -4.510028e-01 8.513590e-01 -1.943518e+00
      endloop
   endfacet
   facet normal 0.000000e+00 -8.959521e-01 4.441506e-01
      outer loop
         vertex 6.764090e-02 8.513590e-01 -1.943518e+00
         vertex 6.764090e-02 8.514905e-01 -1.943253e+00
         vertex -4.510028e-01 8.513590e-01 -1.943518e+00
      endloop
   endfacet
   facet normal 2.257784e-08 -8.959697e-01 4.441152e-01
      outer loop
         vertex 6.764090e-02 8.514905e-01 -1.943253e+00
         vertex -4.510019e-01 8.515368e-01 -1.943159e+00
         vertex -4.510028e-01 8.513590e-01 -1.943518e+00
      endloop
   endfacet
   facet normal -2.426716e-05 -8.959521e-01 4.441506e-01
      outer loop
         vertex 4.510016e-01 8.514821e-01 -1.943248e+00
         vertex 6.764090e-02 8.514905e-01 -1.943253e+00
         vertex 6.764090e-02 8.513590e-01 -1.943518e+00
      endloop
   endfacet
   facet normal -9.999969e-01 2.327561e-06 2.472114e-03
      outer loop
         vertex -4.510133e-01 8.610552e-01 -1.947773e+00
         vertex -4.510175e-01 8.517956e-01 -1.949476e+00
         vertex -4.510133e-01 8.514327e-01 -1.947764e+00
      endloop
   endfacet
   facet normal -9.999969e-01 2.327159e-06 2.471687e-03
      outer loop
         vertex -4.510028e-01 8.546372e-01 -1.943547e+00
         vertex -4.510133e-01 8.610552e-01 -1.947773e+00
         vertex -4.510133e-01 8.514327e-01 -1.947764e+00
      endloop
   endfacet
   facet normal 0.000000e+00 -9.782576e-01 -2.073936e-01
      outer loop
         vertex -4.510175e-01 8.517956e-01 -1.949476e+00
         vertex 6.764090e-02 8.517956e-01 -1.949476e+00
         vertex -4.510133e-01 8.514327e-01 -1.947764e+00
      endloop
   endfacet
   facet normal 1.386238e-04 -9.859512e-01 -1.670333e-01
      outer loop
         vertex 6.764090e-02 8.517956e-01 -1.949476e+00
         vertex 6.764090e-02 8.517650e-01 -1.949296e+00
         vertex -4.510133e-01 8.514327e-01 -1.947764e+00
      endloop
   endfacet
   facet normal -2.418598e-05 -8.578292e-01 5.139349e-01
      outer loop
         vertex 4.510014e-01 8.515223e-01 -1.943181e+00
         vertex 6.764090e-02 8.514905e-01 -1.943253e+00
         vertex 4.510016e-01 8.514821e-01 -1.943248e+00
      endloop
   endfacet
   facet normal 9.999964e-01 2.757417e-06 2.665005e-03
      outer loop
         vertex 4.510017e-01 8.542205e-01 -1.943296e+00
         vertex 4.510014e-01 8.515223e-01 -1.943181e+00
         vertex 4.510016e-01 8.514821e-01 -1.943248e+00
      endloop
   endfacet
   facet normal -7.996179e-06 -8.961044e-01 4.438433e-01
      outer loop
         vertex 4.510014e-01 8.515223e-01 -1.943181e+00
         vertex 6.764090e-02 8.515250e-01 -1.943183e+00
         vertex 6.764090e-02 8.514905e-01 -1.943253e+00
      endloop
   endfacet
   facet normal -3.852012e-08 -8.961044e-01 4.438433e-01
      outer loop
         vertex 6.764090e-02 8.515250e-01 -1.943183e+00
         vertex -4.510019e-01 8.515368e-01 -1.943159e+00
         vertex 6.764090e-02 8.514905e-01 -1.943253e+00
      endloop
   endfacet
   facet normal 7.182080e-06 -7.782849e-01 6.279113e-01
      outer loop
         vertex 4.510009e-01 8.517065e-01 -1.942953e+00
         vertex 6.764090e-02 8.515368e-01 -1.943159e+00
         vertex 4.510014e-01 8.515223e-01 -1.943181e+00
      endloop
   endfacet
   facet normal -7.996199e-06 -8.957702e-01 4.445175e-01
      outer loop
         vertex 6.764090e-02 8.515368e-01 -1.943159e+00
         vertex 6.764090e-02 8.515250e-01 -1.943183e+00
         vertex 4.510014e-01 8.515223e-01 -1.943181e+00
      endloop
   endfacet
   facet normal 9.999971e-01 5.156318e-06 2.421176e-03
      outer loop
         vertex 4.510002e-01 8.527800e-01 -1.942679e+00
         vertex 4.510001e-01 8.524024e-01 -1.942666e+00
         vertex 4.510014e-01 8.515223e-01 -1.943181e+00
      endloop
   endfacet
   facet normal 9.999970e-01 1.466391e-06 2.430420e-03
      outer loop
         vertex 4.510005e-01 8.532762e-01 -1.942815e+00
         vertex 4.510002e-01 8.527800e-01 -1.942679e+00
         vertex 4.510014e-01 8.515223e-01 -1.943181e+00
      endloop
   endfacet
   facet normal 9.999970e-01 -5.743414e-06 2.464894e-03
      outer loop
         vertex 4.510017e-01 8.542205e-01 -1.943296e+00
         vertex 4.510005e-01 8.532762e-01 -1.942815e+00
         vertex 4.510014e-01 8.515223e-01 -1.943181e+00
      endloop
   endfacet
   facet normal 9.999967e-01 -8.227029e-05 2.570555e-03
      outer loop
         vertex 4.510001e-01 8.524024e-01 -1.942666e+00
         vertex 4.510003e-01 8.521045e-01 -1.942722e+00
         vertex 4.510014e-01 8.515223e-01 -1.943181e+00
      endloop
   endfacet
   facet normal 9.999971e-01 2.968609e-05 2.428605e-03
      outer loop
         vertex 4.510003e-01 8.521045e-01 -1.942722e+00
         vertex 4.510005e-01 8.518849e-01 -1.942818e+00
         vertex 4.510014e-01 8.515223e-01 -1.943181e+00
      endloop
   endfacet
   facet normal 9.999981e-01 5.694304e-04 1.890455e-03
      outer loop
         vertex 4.510005e-01 8.518849e-01 -1.942818e+00
         vertex 4.510009e-01 8.517065e-01 -1.942953e+00
         vertex 4.510014e-01 8.515223e-01 -1.943181e+00
      endloop
   endfacet
   facet normal 0.000000e+00 -8.957702e-01 4.445175e-01
      outer loop
         vertex 6.764090e-02 8.515368e-01 -1.943159e+00
         vertex -4.510019e-01 8.515368e-01 -1.943159e+00
         vertex 6.764090e-02 8.515250e-01 -1.943183e+00
      endloop
   endfacet
   facet normal -9.999967e-01 -3.976099e-07 2.560131e-03
      outer loop
         vertex -4.510010e-01 8.518989e-01 -1.942810e+00
         vertex -4.510008e-01 8.521234e-01 -1.942717e+00
         vertex -4.510019e-01 8.515368e-01 -1.943159e+00
      endloop
   endfacet
   facet normal -9.999977e-01 4.731592e-04 2.069283e-03
      outer loop
         vertex -4.510014e-01 8.517189e-01 -1.942941e+00
         vertex -4.510010e-01 8.518989e-01 -1.942810e+00
         vertex -4.510019e-01 8.515368e-01 -1.943159e+00
      endloop
   endfacet
   facet normal 0.000000e+00 -7.670318e-01 6.416091e-01
      outer loop
         vertex 6.764090e-02 8.515368e-01 -1.943159e+00
         vertex -4.510014e-01 8.517189e-01 -1.942941e+00
         vertex -4.510019e-01 8.515368e-01 -1.943159e+00
      endloop
   endfacet
   facet normal -5.056811e-06 -7.671209e-01 6.415026e-01
      outer loop
         vertex 4.510009e-01 8.517065e-01 -1.942953e+00
         vertex 6.764090e-02 8.517079e-01 -1.942954e+00
         vertex 6.764090e-02 8.515368e-01 -1.943159e+00
      endloop
   endfacet
   facet normal -7.598483e-08 -7.671209e-01 6.415026e-01
      outer loop
         vertex 6.764090e-02 8.517079e-01 -1.942954e+00
         vertex -4.510014e-01 8.517189e-01 -1.942941e+00
         vertex 6.764090e-02 8.515368e-01 -1.943159e+00
      endloop
   endfacet
   facet normal 4.850055e-06 -6.045029e-01 7.966029e-01
      outer loop
         vertex 4.510005e-01 8.518849e-01 -1.942818e+00
         vertex 6.764090e-02 8.517189e-01 -1.942941e+00
         vertex 4.510009e-01 8.517065e-01 -1.942953e+00
      endloop
   endfacet
   facet normal -5.057330e-06 -7.656360e-01 6.432741e-01
      outer loop
         vertex 6.764090e-02 8.517189e-01 -1.942941e+00
         vertex 6.764090e-02 8.517079e-01 -1.942954e+00
         vertex 4.510009e-01 8.517065e-01 -1.942953e+00
      endloop
   endfacet
   facet normal 0.000000e+00 -7.656360e-01 6.432741e-01
      outer loop
         vertex 6.764090e-02 8.517189e-01 -1.942941e+00
         vertex -4.510014e-01 8.517189e-01 -1.942941e+00
         vertex 6.764090e-02 8.517079e-01 -1.942954e+00
      endloop
   endfacet
   facet normal 0.000000e+00 -5.903784e-01 8.071266e-01
      outer loop
         vertex 6.764090e-02 8.517189e-01 -1.942941e+00
         vertex -4.510010e-01 8.518989e-01 -1.942810e+00
         vertex -4.510014e-01 8.517189e-01 -1.942941e+00
      endloop
   endfacet
   facet normal -4.789557e-06 -5.901898e-01 8.072645e-01
      outer loop
         vertex 4.510005e-01 8.518849e-01 -1.942818e+00
         vertex 6.764090e-02 8.518860e-01 -1.942819e+00
         vertex 6.764090e-02 8.517189e-01 -1.942941e+00
      endloop
   endfacet
   facet normal 1.004505e-07 -5.901898e-01 8.072645e-01
      outer loop
         vertex 6.764090e-02 8.518860e-01 -1.942819e+00
         vertex -4.510010e-01 8.518989e-01 -1.942810e+00
         vertex 6.764090e-02 8.517189e-01 -1.942941e+00
      endloop
   endfacet
   facet normal -3.513298e-05 -9.632439e-01 -2.686284e-01
      outer loop
         vertex 6.764090e-02 8.517650e-01 -1.949296e+00
         vertex 4.510211e-01 8.522658e-01 -1.951142e+00
         vertex 4.510165e-01 8.517517e-01 -1.949298e+00
      endloop
   endfacet
   facet normal 9.999969e-01 -4.367657e-06 2.475392e-03
      outer loop
         vertex 4.510062e-01 8.570317e-01 -1.945123e+00
         vertex 4.510041e-01 8.557111e-01 -1.944246e+00
         vertex 4.510165e-01 8.517517e-01 -1.949298e+00
      endloop
   endfacet
   facet normal 9.999969e-01 -2.183780e-06 2.472630e-03
      outer loop
         vertex 4.510211e-01 8.522658e-01 -1.951142e+00
         vertex 4.510062e-01 8.570317e-01 -1.945123e+00
         vertex 4.510165e-01 8.517517e-01 -1.949298e+00
      endloop
   endfacet
   facet normal 4.836883e-04 -9.859511e-01 -1.670333e-01
      outer loop
         vertex 6.764090e-02 8.517956e-01 -1.949476e+00
         vertex 4.510211e-01 8.522658e-01 -1.951142e+00
         vertex 6.764090e-02 8.517650e-01 -1.949296e+00
      endloop
   endfacet
   facet normal -9.999969e-01 1.915768e-06 2.474353e-03
      outer loop
         vertex -4.510133e-01 8.610552e-01 -1.947773e+00
         vertex -4.510228e-01 8.524203e-01 -1.951621e+00
         vertex -4.510175e-01 8.517956e-01 -1.949476e+00
      endloop
   endfacet
   facet normal 2.393630e-04 -9.600951e-01 -2.796736e-01
      outer loop
         vertex -4.510228e-01 8.524203e-01 -1.951621e+00
         vertex 6.764090e-02 8.529334e-01 -1.952938e+00
         vertex -4.510175e-01 8.517956e-01 -1.949476e+00
      endloop
   endfacet
   facet normal 0.000000e+00 -9.500096e-01 -3.122208e-01
      outer loop
         vertex 6.764090e-02 8.529334e-01 -1.952938e+00
         vertex 6.764090e-02 8.517956e-01 -1.949476e+00
         vertex -4.510175e-01 8.517956e-01 -1.949476e+00
      endloop
   endfacet
   facet normal -2.595614e-04 -9.451470e-01 -3.266451e-01
      outer loop
         vertex 4.510256e-01 8.528915e-01 -1.952952e+00
         vertex 4.510211e-01 8.522658e-01 -1.951142e+00
         vertex 6.764090e-02 8.517956e-01 -1.949476e+00
      endloop
   endfacet
   facet normal -1.148966e-04 -9.500096e-01 -3.122208e-01
      outer loop
         vertex 6.764090e-02 8.529334e-01 -1.952938e+00
         vertex 4.510256e-01 8.528915e-01 -1.952952e+00
         vertex 6.764090e-02 8.517956e-01 -1.949476e+00
      endloop
   endfacet
   facet normal 4.597460e-06 -3.987807e-01 9.170463e-01
      outer loop
         vertex 4.510003e-01 8.521045e-01 -1.942722e+00
         vertex 6.764090e-02 8.518989e-01 -1.942810e+00
         vertex 4.510005e-01 8.518849e-01 -1.942818e+00
      endloop
   endfacet
   facet normal -4.789418e-06 -5.928174e-01 8.053369e-01
      outer loop
         vertex 6.764090e-02 8.518989e-01 -1.942810e+00
         vertex 6.764090e-02 8.518860e-01 -1.942819e+00
         vertex 4.510005e-01 8.518849e-01 -1.942818e+00
      endloop
   endfacet
   facet normal 0.000000e+00 -5.928174e-01 8.053369e-01
      outer loop
         vertex 6.764090e-02 8.518989e-01 -1.942810e+00
         vertex -4.510010e-01 8.518989e-01 -1.942810e+00
         vertex 6.764090e-02 8.518860e-01 -1.942819e+00
      endloop
   endfacet
   facet normal 0.000000e+00 -3.833264e-01 9.236130e-01
      outer loop
         vertex 6.764090e-02 8.518989e-01 -1.942810e+00
         vertex -4.510008e-01 8.521234e-01 -1.942717e+00
         vertex -4.510010e-01 8.518989e-01 -1.942810e+00
      endloop
   endfacet
   facet normal -5.166887e-06 -3.833648e-01 9.235970e-01
      outer loop
         vertex 4.510003e-01 8.521045e-01 -1.942722e+00
         vertex 6.764090e-02 8.521052e-01 -1.942724e+00
         vertex 6.764090e-02 8.518989e-01 -1.942810e+00
      endloop
   endfacet
   facet normal -1.949958e-08 -3.833648e-01 9.235970e-01
      outer loop
         vertex 6.764090e-02 8.521052e-01 -1.942724e+00
         vertex -4.510008e-01 8.521234e-01 -1.942717e+00
         vertex 6.764090e-02 8.518989e-01 -1.942810e+00
      endloop
   endfacet
   facet normal 5.454573e-06 -1.844548e-01 9.828410e-01
      outer loop
         vertex 4.510001e-01 8.524024e-01 -1.942666e+00
         vertex 6.764090e-02 8.521234e-01 -1.942717e+00
         vertex 4.510003e-01 8.521045e-01 -1.942722e+00
      endloop
   endfacet
   facet normal -5.166951e-06 -3.828885e-01 9.237946e-01
      outer loop
         vertex 6.764090e-02 8.521234e-01 -1.942717e+00
         vertex 6.764090e-02 8.521052e-01 -1.942724e+00
         vertex 4.510003e-01 8.521045e-01 -1.942722e+00
      endloop
   endfacet
   facet normal 0.000000e+00 -3.828885e-01 9.237946e-01
      outer loop
         vertex 6.764090e-02 8.521234e-01 -1.942717e+00
         vertex -4.510008e-01 8.521234e-01 -1.942717e+00
         vertex 6.764090e-02 8.521052e-01 -1.942724e+00
      endloop
   endfacet
   facet normal 0.000000e+00 -1.637404e-01 9.865035e-01
      outer loop
         vertex 6.764090e-02 8.521234e-01 -1.942717e+00
         vertex -4.510006e-01 8.524419e-01 -1.942664e+00
         vertex -4.510008e-01 8.521234e-01 -1.942717e+00
      endloop
   endfacet
   facet normal -1.012191e-05 -1.637173e-01 9.865073e-01
      outer loop
         vertex 4.510001e-01 8.524024e-01 -1.942666e+00
         vertex 6.764090e-02 8.524031e-01 -1.942670e+00
         vertex 6.764090e-02 8.521234e-01 -1.942717e+00
      endloop
   endfacet
   facet normal 1.454007e-08 -1.637173e-01 9.865073e-01
      outer loop
         vertex 6.764090e-02 8.524031e-01 -1.942670e+00
         vertex -4.510006e-01 8.524419e-01 -1.942664e+00
         vertex 6.764090e-02 8.521234e-01 -1.942717e+00
      endloop
   endfacet
   facet normal 9.999969e-01 -2.258114e-06 2.472689e-03
      outer loop
         vertex 4.510084e-01 8.583373e-01 -1.945990e+00
         vertex 4.510062e-01 8.570317e-01 -1.945123e+00
         vertex 4.510211e-01 8.522658e-01 -1.951142e+00
      endloop
   endfacet
   facet normal 9.999969e-01 -1.015649e-05 2.481997e-03
      outer loop
         vertex 4.510256e-01 8.528915e-01 -1.952952e+00
         vertex 4.510084e-01 8.583373e-01 -1.945990e+00
         vertex 4.510211e-01 8.522658e-01 -1.951142e+00
      endloop
   endfacet
   facet normal 1.040984e-05 3.471225e-02 9.993973e-01
      outer loop
         vertex 4.510002e-01 8.527800e-01 -1.942679e+00
         vertex 6.764090e-02 8.524419e-01 -1.942664e+00
         vertex 4.510001e-01 8.524024e-01 -1.942666e+00
      endloop
   endfacet
   facet normal -1.012195e-05 -1.639068e-01 9.864758e-01
      outer loop
         vertex 6.764090e-02 8.524419e-01 -1.942664e+00
         vertex 6.764090e-02 8.524031e-01 -1.942670e+00
         vertex 4.510001e-01 8.524024e-01 -1.942666e+00
      endloop
   endfacet
   facet normal 0.000000e+00 -1.639068e-01 9.864758e-01
      outer loop
         vertex 6.764090e-02 8.524419e-01 -1.942664e+00
         vertex -4.510006e-01 8.524419e-01 -1.942664e+00
         vertex 6.764090e-02 8.524031e-01 -1.942670e+00
      endloop
   endfacet
   facet normal -9.999970e-01 4.050103e-06 2.469563e-03
      outer loop
         vertex -4.510133e-01 8.610552e-01 -1.947773e+00
         vertex -4.510280e-01 8.531910e-01 -1.953722e+00
         vertex -4.510228e-01 8.524203e-01 -1.951621e+00
      endloop
   endfacet
   facet normal 0.000000e+00 -9.388333e-01 -3.443720e-01
      outer loop
         vertex -4.510280e-01 8.531910e-01 -1.953722e+00
         vertex 6.764090e-02 8.531910e-01 -1.953722e+00
         vertex -4.510228e-01 8.524203e-01 -1.951621e+00
      endloop
   endfacet
   facet normal 1.464830e-04 -9.499831e-01 -3.123014e-01
      outer loop
         vertex 6.764090e-02 8.531910e-01 -1.953722e+00
         vertex 6.764090e-02 8.529334e-01 -1.952938e+00
         vertex -4.510228e-01 8.524203e-01 -1.951621e+00
      endloop
   endfacet
   facet normal 0.000000e+00 5.977502e-02 9.982119e-01
      outer loop
         vertex 6.764090e-02 8.524419e-01 -1.942664e+00
         vertex -4.510007e-01 8.528261e-01 -1.942687e+00
         vertex -4.510006e-01 8.524419e-01 -1.942664e+00
      endloop
   endfacet
   facet normal -1.167732e-05 5.970277e-02 9.982162e-01
      outer loop
         vertex 4.510002e-01 8.527800e-01 -1.942679e+00
         vertex 6.764090e-02 8.527797e-01 -1.942684e+00
         vertex 6.764090e-02 8.524419e-01 -1.942664e+00
      endloop
   endfacet
   facet normal -5.371659e-08 5.970277e-02 9.982162e-01
      outer loop
         vertex 6.764090e-02 8.527797e-01 -1.942684e+00
         vertex -4.510007e-01 8.528261e-01 -1.942687e+00
         vertex 6.764090e-02 8.524419e-01 -1.942664e+00
      endloop
   endfacet
   facet normal -1.167727e-05 6.030138e-02 9.981802e-01
      outer loop
         vertex 4.510002e-01 8.527800e-01 -1.942679e+00
         vertex 6.764090e-02 8.528261e-01 -1.942687e+00
         vertex 6.764090e-02 8.527797e-01 -1.942684e+00
      endloop
   endfacet
   facet normal 0.000000e+00 6.030138e-02 9.981802e-01
      outer loop
         vertex 6.764090e-02 8.528261e-01 -1.942687e+00
         vertex -4.510007e-01 8.528261e-01 -1.942687e+00
         vertex 6.764090e-02 8.527797e-01 -1.942684e+00
      endloop
   endfacet
   facet normal 1.332683e-05 2.628232e-01 9.648440e-01
      outer loop
         vertex 4.510005e-01 8.532762e-01 -1.942815e+00
         vertex 6.764090e-02 8.528261e-01 -1.942687e+00
         vertex 4.510002e-01 8.527800e-01 -1.942679e+00
      endloop
   endfacet
   facet normal 0.000000e+00 2.854788e-01 9.583850e-01
      outer loop
         vertex 6.764090e-02 8.528261e-01 -1.942687e+00
         vertex -4.510011e-01 8.533365e-01 -1.942839e+00
         vertex -4.510007e-01 8.528261e-01 -1.942687e+00
      endloop
   endfacet
   facet normal -1.539871e-05 2.854542e-01 9.583924e-01
      outer loop
         vertex 4.510005e-01 8.532762e-01 -1.942815e+00
         vertex 6.764090e-02 8.532746e-01 -1.942820e+00
         vertex 6.764090e-02 8.528261e-01 -1.942687e+00
      endloop
   endfacet
   facet normal -2.634993e-08 2.854542e-01 9.583924e-01
      outer loop
         vertex 6.764090e-02 8.532746e-01 -1.942820e+00
         vertex -4.510011e-01 8.533365e-01 -1.942839e+00
         vertex 6.764090e-02 8.528261e-01 -1.942687e+00
      endloop
   endfacet
   facet normal -1.146071e-04 -9.253236e-01 -3.791785e-01
      outer loop
         vertex 6.764090e-02 8.529334e-01 -1.952938e+00
         vertex 4.510307e-01 8.537337e-01 -1.955007e+00
         vertex 4.510256e-01 8.528915e-01 -1.952952e+00
      endloop
   endfacet
   facet normal 9.999969e-01 2.697904e-06 2.471943e-03
      outer loop
         vertex 4.510107e-01 8.597564e-01 -1.946931e+00
         vertex 4.510084e-01 8.583373e-01 -1.945990e+00
         vertex 4.510256e-01 8.528915e-01 -1.952952e+00
      endloop
   endfacet
   facet normal 9.999970e-01 6.433952e-06 2.467683e-03
      outer loop
         vertex 4.510307e-01 8.537337e-01 -1.955007e+00
         vertex 4.510107e-01 8.597564e-01 -1.946931e+00
         vertex 4.510256e-01 8.528915e-01 -1.952952e+00
      endloop
   endfacet
   facet normal 2.977907e-04 -9.499830e-01 -3.123014e-01
      outer loop
         vertex 6.764090e-02 8.531910e-01 -1.953722e+00
         vertex 4.510307e-01 8.537337e-01 -1.955007e+00
         vertex 6.764090e-02 8.529334e-01 -1.952938e+00
      endloop
   endfacet
   facet normal -9.999970e-01 5.067469e-06 2.468218e-03
      outer loop
         vertex -4.510133e-01 8.610552e-01 -1.947773e+00
         vertex -4.510331e-01 8.540955e-01 -1.955801e+00
         vertex -4.510280e-01 8.531910e-01 -1.953722e+00
      endloop
   endfacet
   facet normal 1.912598e-04 -9.169411e-01 -3.990226e-01
      outer loop
         vertex -4.510331e-01 8.540955e-01 -1.955801e+00
         vertex 6.764090e-02 8.547231e-01 -1.956994e+00
         vertex -4.510280e-01 8.531910e-01 -1.953722e+00