solid RWmain
   facet normal 4.568588e-05 -9.998325e-01 1.830345e-02
      outer loop
         vertex 4.501709e-01 6.310304e-01 -1.607475e+00
         vertex 6.764090e-02 6.309334e-01 -1.611818e+00
         vertex 4.501852e-01 6.309242e-01 -1.613278e+00
      endloop
   endfacet
   facet normal -1.069111e-04 -9.997647e-01 -2.169338e-02
      outer loop
         vertex 6.764090e-02 6.309334e-01 -1.611818e+00
         vertex 6.764090e-02 6.309651e-01 -1.613277e+00
         vertex 4.501852e-01 6.309242e-01 -1.613278e+00
      endloop
   endfacet
   facet normal -1.069079e-04 -9.999056e-01 -1.374229e-02
      outer loop
         vertex 6.764090e-02 6.309651e-01 -1.613277e+00
         vertex 4.501999e-01 6.310058e-01 -1.619215e+00
         vertex 4.501852e-01 6.309242e-01 -1.613278e+00
      endloop
   endfacet
   facet normal 9.999969e-01 5.858514e-07 2.474602e-03
      outer loop
         vertex 4.501999e-01 6.310058e-01 -1.619215e+00
         vertex 4.502127e-01 6.798514e-01 -1.624369e+00
         vertex 4.501852e-01 6.309242e-01 -1.613278e+00
      endloop
   endfacet
   facet normal 9.999969e-01 2.373465e-07 2.473065e-03
      outer loop
         vertex 4.502127e-01 6.798514e-01 -1.624369e+00
         vertex 4.501623e-01 6.771898e-01 -1.603991e+00
         vertex 4.501852e-01 6.309242e-01 -1.613278e+00
      endloop
   endfacet
   facet normal 9.999969e-01 -3.076208e-07 2.475780e-03
      outer loop
         vertex 4.501623e-01 6.771898e-01 -1.603991e+00
         vertex 4.501709e-01 6.310304e-01 -1.607475e+00
         vertex 4.501852e-01 6.309242e-01 -1.613278e+00
      endloop
   endfacet
   facet normal -9.999969e-01 9.049351e-07 2.471298e-03
      outer loop
         vertex -4.501683e-01 6.774723e-01 -1.606215e+00
         vertex -4.501968e-01 6.309681e-01 -1.617751e+00
         vertex -4.501821e-01 6.309334e-01 -1.611818e+00
      endloop
   endfacet
   facet normal -9.999969e-01 1.555310e-07 2.477523e-03
      outer loop
         vertex -4.501678e-01 6.310852e-01 -1.606044e+00
         vertex -4.501683e-01 6.774723e-01 -1.606215e+00
         vertex -4.501821e-01 6.309334e-01 -1.611818e+00
      endloop
   endfacet
   facet normal 4.465095e-05 -9.999829e-01 -5.846745e-03
      outer loop
         vertex -4.501968e-01 6.309681e-01 -1.617751e+00
         vertex 6.764090e-02 6.309651e-01 -1.613277e+00
         vertex -4.501821e-01 6.309334e-01 -1.611818e+00
      endloop
   endfacet
   facet normal 0.000000e+00 -9.997647e-01 -2.169338e-02
      outer loop
         vertex 6.764090e-02 6.309651e-01 -1.613277e+00
         vertex 6.764090e-02 6.309334e-01 -1.611818e+00
         vertex -4.501821e-01 6.309334e-01 -1.611818e+00
      endloop
   endfacet
   facet normal 0.000000e+00 -9.996545e-01 2.628375e-02
      outer loop
         vertex 6.764090e-02 6.309334e-01 -1.611818e+00
         vertex -4.501678e-01 6.310852e-01 -1.606044e+00
         vertex -4.501821e-01 6.309334e-01 -1.611818e+00
      endloop
   endfacet
   facet normal -2.271689e-04 -9.991040e-01 4.232242e-02
      outer loop
         vertex 4.501709e-01 6.310304e-01 -1.607475e+00
         vertex 6.764090e-02 6.313631e-01 -1.601676e+00
         vertex 6.764090e-02 6.309334e-01 -1.611818e+00
      endloop
   endfacet
   facet normal 1.790039e-04 -9.991040e-01 4.232243e-02
      outer loop
         vertex 6.764090e-02 6.313631e-01 -1.601676e+00
         vertex -4.501678e-01 6.310852e-01 -1.606044e+00
         vertex 6.764090e-02 6.309334e-01 -1.611818e+00
      endloop
   endfacet
   facet normal -2.300649e-04 -9.997650e-01 -2.167550e-02
      outer loop
         vertex 6.764090e-02 6.311907e-01 -1.623685e+00
         vertex 4.501999e-01 6.310058e-01 -1.619215e+00
         vertex 6.764090e-02 6.309651e-01 -1.613277e+00
      endloop
   endfacet
   facet normal 1.814268e-04 -9.997650e-01 -2.167550e-02
      outer loop
         vertex -4.501968e-01 6.309681e-01 -1.617751e+00
         vertex 6.764090e-02 6.311907e-01 -1.623685e+00
         vertex 6.764090e-02 6.309651e-01 -1.613277e+00
      endloop
   endfacet
   facet normal -9.999969e-01 -1.654471e-07 2.470976e-03
      outer loop
         vertex -4.502183e-01 6.801303e-01 -1.626432e+00
         vertex -4.502115e-01 6.311907e-01 -1.623685e+00
         vertex -4.501968e-01 6.309681e-01 -1.617751e+00
      endloop
   endfacet
   facet normal -9.999969e-01 3.128323e-07 2.473685e-03
      outer loop
         vertex -4.501683e-01 6.774723e-01 -1.606215e+00
         vertex -4.502183e-01 6.801303e-01 -1.626432e+00
         vertex -4.501968e-01 6.309681e-01 -1.617751e+00
      endloop
   endfacet
   facet normal 0.000000e+00 -9.992970e-01 -3.749048e-02
      outer loop
         vertex -4.502115e-01 6.311907e-01 -1.623685e+00
         vertex 6.764090e-02 6.311907e-01 -1.623685e+00
         vertex -4.501968e-01 6.309681e-01 -1.617751e+00
      endloop
   endfacet
   facet normal 4.466376e-05 -9.989801e-01 -4.515363e-02
      outer loop
         vertex 6.764090e-02 6.311907e-01 -1.623685e+00
         vertex 4.502146e-01 6.312742e-01 -1.625153e+00
         vertex 4.501999e-01 6.310058e-01 -1.619215e+00
      endloop
   endfacet
   facet normal 9.999969e-01 5.555446e-07 2.474315e-03
      outer loop
         vertex 4.502146e-01 6.312742e-01 -1.625153e+00
         vertex 4.502127e-01 6.798514e-01 -1.624369e+00
         vertex 4.501999e-01 6.310058e-01 -1.619215e+00
      endloop
   endfacet
   facet normal -1.037123e-04 -9.987269e-01 5.044363e-02
      outer loop
         vertex 4.501565e-01 6.313234e-01 -1.601674e+00
         vertex 6.764090e-02 6.313631e-01 -1.601676e+00
         vertex 4.501709e-01 6.310304e-01 -1.607475e+00
      endloop
   endfacet
   facet normal 9.999969e-01 -3.319842e-07 2.476102e-03
      outer loop
         vertex 4.501623e-01 6.771898e-01 -1.603991e+00
         vertex 4.501565e-01 6.313234e-01 -1.601674e+00
         vertex 4.501709e-01 6.310304e-01 -1.607475e+00
      endloop
   endfacet
   facet normal -9.999969e-01 1.566459e-07 2.477825e-03
      outer loop
         vertex -4.501535e-01 6.314225e-01 -1.600271e+00
         vertex -4.501683e-01 6.774723e-01 -1.606215e+00
         vertex -4.501678e-01 6.310852e-01 -1.606044e+00
      endloop
   endfacet
   facet normal 4.356315e-05 -9.982976e-01 5.832586e-02
      outer loop
         vertex 6.764090e-02 6.313631e-01 -1.601676e+00
         vertex -4.501535e-01 6.314225e-01 -1.600271e+00
         vertex -4.501678e-01 6.310852e-01 -1.606044e+00
      endloop
   endfacet
   facet normal -9.999969e-01 4.298947e-07 2.481584e-03
      outer loop
         vertex -4.502183e-01 6.801303e-01 -1.626432e+00
         vertex -4.502264e-01 6.316020e-01 -1.629690e+00
         vertex -4.502115e-01 6.311907e-01 -1.623685e+00
      endloop
   endfacet
   facet normal 4.308504e-05 -9.976627e-01 -6.833113e-02
      outer loop
         vertex -4.502264e-01 6.316020e-01 -1.629690e+00
         vertex 6.764090e-02 6.313134e-01 -1.625150e+00
         vertex -4.502115e-01 6.311907e-01 -1.623685e+00
      endloop
   endfacet
   facet normal 0.000000e+00 -9.965103e-01 -8.347008e-02
      outer loop
         vertex 6.764090e-02 6.313134e-01 -1.625150e+00
         vertex 6.764090e-02 6.311907e-01 -1.623685e+00
         vertex -4.502115e-01 6.311907e-01 -1.623685e+00
      endloop
   endfacet
   facet normal -1.028766e-04 -9.965103e-01 -8.347008e-02
      outer loop
         vertex 6.764090e-02 6.313134e-01 -1.625150e+00
         vertex 4.502146e-01 6.312742e-01 -1.625153e+00
         vertex 6.764090e-02 6.311907e-01 -1.623685e+00
      endloop
   endfacet
   facet normal -1.028734e-04 -9.971206e-01 -7.583176e-02
      outer loop
         vertex 6.764090e-02 6.313134e-01 -1.625150e+00
         vertex 4.502295e-01 6.317324e-01 -1.631178e+00
         vertex 4.502146e-01 6.312742e-01 -1.625153e+00
      endloop
   endfacet
   facet normal 9.999969e-01 5.757684e-07 2.473062e-03
      outer loop
         vertex 4.502295e-01 6.317324e-01 -1.631178e+00
         vertex 4.502127e-01 6.798514e-01 -1.624369e+00
         vertex 4.502146e-01 6.312742e-01 -1.625153e+00
      endloop
   endfacet
   facet normal -2.237322e-04 -9.965112e-01 -8.345915e-02
      outer loop
         vertex 6.764090e-02 6.321966e-01 -1.635695e+00
         vertex 4.502295e-01 6.317324e-01 -1.631178e+00
         vertex 6.764090e-02 6.313134e-01 -1.625150e+00
      endloop
   endfacet
   facet normal 1.763586e-04 -9.965112e-01 -8.345915e-02
      outer loop
         vertex -4.502264e-01 6.316020e-01 -1.629690e+00
         vertex 6.764090e-02 6.321966e-01 -1.635695e+00
         vertex 6.764090e-02 6.313134e-01 -1.625150e+00
      endloop
   endfacet
   facet normal 4.381329e-05 -9.966040e-01 8.234418e-02
      outer loop
         vertex 4.501426e-01 6.317874e-01 -1.596058e+00
         vertex 6.764090e-02 6.314225e-01 -1.600271e+00
         vertex 4.501565e-01 6.313234e-01 -1.601674e+00
      endloop
   endfacet
   facet normal -1.037156e-04 -9.991048e-01 4.230405e-02
      outer loop
         vertex 6.764090e-02 6.314225e-01 -1.600271e+00
         vertex 6.764090e-02 6.313631e-01 -1.601676e+00
         vertex 4.501565e-01 6.313234e-01 -1.601674e+00
      endloop
   endfacet
   facet normal 9.999969e-01 -4.919220e-07 2.472936e-03
      outer loop
         vertex 4.501623e-01 6.771898e-01 -1.603991e+00
         vertex 4.501426e-01 6.317874e-01 -1.596058e+00
         vertex 4.501565e-01 6.313234e-01 -1.601674e+00
      endloop
   endfacet
   facet normal 0.000000e+00 -9.991048e-01 4.230405e-02
      outer loop
         vertex 6.764090e-02 6.314225e-01 -1.600271e+00
         vertex -4.501535e-01 6.314225e-01 -1.600271e+00
         vertex 6.764090e-02 6.313631e-01 -1.601676e+00
      endloop
   endfacet
   facet normal -9.999970e-01 -1.127386e-06 2.467878e-03
      outer loop
         vertex -4.501397e-01 6.319304e-01 -1.594667e+00
         vertex -4.501683e-01 6.774723e-01 -1.606215e+00
         vertex -4.501535e-01 6.314225e-01 -1.600271e+00
      endloop
   endfacet
   facet normal 0.000000e+00 -9.959185e-01 9.025731e-02
      outer loop
         vertex 6.764090e-02 6.314225e-01 -1.600271e+00
         vertex -4.501397e-01 6.319304e-01 -1.594667e+00
         vertex -4.501535e-01 6.314225e-01 -1.600271e+00
      endloop
   endfacet
   facet normal -2.247242e-04 -9.943098e-01 1.065272e-01
      outer loop
         vertex 4.501426e-01 6.317874e-01 -1.596058e+00
         vertex 6.764090e-02 6.324750e-01 -1.590447e+00
         vertex 6.764090e-02 6.314225e-01 -1.600271e+00
      endloop
   endfacet
   facet normal 1.776538e-04 -9.943098e-01 1.065272e-01
      outer loop
         vertex 6.764090e-02 6.324750e-01 -1.590447e+00
         vertex -4.501397e-01 6.319304e-01 -1.594667e+00
         vertex 6.764090e-02 6.314225e-01 -1.600271e+00
      endloop
   endfacet
   facet normal -9.999969e-01 1.110688e-06 2.471444e-03
      outer loop
         vertex -4.502183e-01 6.801303e-01 -1.626432e+00
         vertex -4.502412e-01 6.321966e-01 -1.635695e+00
         vertex -4.502264e-01 6.316020e-01 -1.629690e+00
      endloop
   endfacet
   facet normal 0.000000e+00 -9.951340e-01 -9.853066e-02
      outer loop
         vertex -4.502412e-01 6.321966e-01 -1.635695e+00
         vertex 6.764090e-02 6.321966e-01 -1.635695e+00
         vertex -4.502264e-01 6.316020e-01 -1.629690e+00
      endloop
   endfacet
   facet normal 4.445678e-05 -9.943709e-01 -1.059548e-01
      outer loop
         vertex 6.764090e-02 6.321966e-01 -1.635695e+00
         vertex 4.502444e-01 6.323746e-01 -1.637205e+00
         vertex 4.502295e-01 6.317324e-01 -1.631178e+00
      endloop
   endfacet
   facet normal 9.999969e-01 6.150932e-07 2.472784e-03
      outer loop
         vertex 4.502444e-01 6.323746e-01 -1.637205e+00
         vertex 4.502127e-01 6.798514e-01 -1.624369e+00
         vertex 4.502295e-01 6.317324e-01 -1.631178e+00
      endloop
   endfacet
   facet normal -1.050023e-04 -9.934142e-01 1.145788e-01
      outer loop
         vertex 4.501287e-01 6.324351e-01 -1.590443e+00
         vertex 6.764090e-02 6.324750e-01 -1.590447e+00
         vertex 4.501426e-01 6.317874e-01 -1.596058e+00
      endloop
   endfacet
   facet normal 9.999969e-01 -1.294273e-07 2.475011e-03
      outer loop
         vertex 4.501623e-01 6.771898e-01 -1.603991e+00
         vertex 4.501118e-01 6.746781e-01 -1.583593e+00
         vertex 4.501426e-01 6.317874e-01 -1.596058e+00
      endloop
   endfacet
   facet normal 9.999969e-01 4.094235e-07 2.473157e-03
      outer loop
         vertex 4.501118e-01 6.746781e-01 -1.583593e+00
         vertex 4.501287e-01 6.324351e-01 -1.590443e+00
         vertex 4.501426e-01 6.317874e-01 -1.596058e+00
      endloop
   endfacet
   facet normal -9.999969e-01 4.809308e-07 2.474221e-03
      outer loop
         vertex -4.501182e-01 6.749654e-01 -1.585979e+00
         vertex -4.501683e-01 6.774723e-01 -1.606215e+00
         vertex -4.501397e-01 6.319304e-01 -1.594667e+00
      endloop
   endfacet
   facet normal -9.999969e-01 -4.416304e-07 2.478790e-03
      outer loop
         vertex -4.501258e-01 6.326232e-01 -1.589065e+00
         vertex -4.501182e-01 6.749654e-01 -1.585979e+00
         vertex -4.501397e-01 6.319304e-01 -1.594667e+00
      endloop
   endfacet
   facet normal 4.374260e-05 -9.924419e-01 1.227153e-01
      outer loop
         vertex 6.764090e-02 6.324750e-01 -1.590447e+00
         vertex -4.501258e-01 6.326232e-01 -1.589065e+00
         vertex -4.501397e-01 6.319304e-01 -1.594667e+00
      endloop
   endfacet
   facet normal -9.999970e-01 1.758961e-06 2.468089e-03
      outer loop
         vertex -4.502183e-01 6.801303e-01 -1.626432e+00
         vertex -4.502564e-01 6.329935e-01 -1.641854e+00
         vertex -4.502412e-01 6.321966e-01 -1.635695e+00
      endloop
   endfacet
   facet normal 4.290693e-05 -9.917323e-01 -1.283241e-01
      outer loop
         vertex -4.502564e-01 6.329935e-01 -1.641854e+00
         vertex 6.764090e-02 6.324136e-01 -1.637199e+00
         vertex -4.502412e-01 6.321966e-01 -1.635695e+00
      endloop
   endfacet
   facet normal 0.000000e+00 -9.897492e-01 -1.428164e-01
      outer loop
         vertex 6.764090e-02 6.324136e-01 -1.637199e+00
         vertex 6.764090e-02 6.321966e-01 -1.635695e+00
         vertex -4.502412e-01 6.321966e-01 -1.635695e+00
      endloop
   endfacet
   facet normal -1.030970e-04 -9.897492e-01 -1.428164e-01
      outer loop
         vertex 6.764090e-02 6.324136e-01 -1.637199e+00
         vertex 4.502444e-01 6.323746e-01 -1.637205e+00
         vertex 6.764090e-02 6.321966e-01 -1.635695e+00
      endloop
   endfacet
   facet normal -1.030943e-04 -9.907651e-01 -1.355894e-01
      outer loop
         vertex 6.764090e-02 6.324136e-01 -1.637199e+00
         vertex 4.502597e-01 6.332199e-01 -1.643382e+00
         vertex 4.502444e-01 6.323746e-01 -1.637205e+00
      endloop
   endfacet
   facet normal 9.999969e-01 -4.182486e-08 2.475214e-03
      outer loop
         vertex 4.502571e-01 6.823420e-01 -1.642333e+00
         vertex 4.502127e-01 6.798514e-01 -1.624369e+00
         vertex 4.502444e-01 6.323746e-01 -1.637205e+00
      endloop
   endfacet
   facet normal 9.999969e-01 -6.640626e-08 2.474974e-03
      outer loop
         vertex 4.502597e-01 6.332199e-01 -1.643382e+00
         vertex 4.502571e-01 6.823420e-01 -1.642333e+00
         vertex 4.502444e-01 6.323746e-01 -1.637205e+00
      endloop
   endfacet
   facet normal -2.218904e-04 -9.897503e-01 -1.428086e-01
      outer loop
         vertex 6.764090e-02 6.339719e-01 -1.647999e+00
         vertex 4.502597e-01 6.332199e-01 -1.643382e+00
         vertex 6.764090e-02 6.324136e-01 -1.637199e+00
      endloop
   endfacet
   facet normal 1.753241e-04 -9.897503e-01 -1.428086e-01
      outer loop
         vertex -4.502564e-01 6.329935e-01 -1.641854e+00
         vertex 6.764090e-02 6.339719e-01 -1.647999e+00
         vertex 6.764090e-02 6.324136e-01 -1.637199e+00
      endloop
   endfacet
   facet normal 4.654634e-05 -9.890068e-01 1.478698e-01
      outer loop
         vertex 4.501150e-01 6.332673e-01 -1.584877e+00
         vertex 6.764090e-02 6.326232e-01 -1.589065e+00
         vertex 4.501287e-01 6.324351e-01 -1.590443e+00
      endloop
   endfacet
   facet normal -1.050058e-04 -9.943092e-01 1.065324e-01
      outer loop
         vertex 6.764090e-02 6.326232e-01 -1.589065e+00
         vertex 6.764090e-02 6.324750e-01 -1.590447e+00
         vertex 4.501287e-01 6.324351e-01 -1.590443e+00
      endloop
   endfacet
   facet normal 9.999969e-01 3.332558e-07 2.473626e-03
      outer loop
         vertex 4.501118e-01 6.746781e-01 -1.583593e+00
         vertex 4.501150e-01 6.332673e-01 -1.584877e+00
         vertex 4.501287e-01 6.324351e-01 -1.590443e+00
      endloop
   endfacet
   facet normal 0.000000e+00 -9.943092e-01 1.065324e-01
      outer loop
         vertex 6.764090e-02 6.326232e-01 -1.589065e+00
         vertex -4.501258e-01 6.326232e-01 -1.589065e+00
         vertex 6.764090e-02 6.324750e-01 -1.590447e+00
      endloop
   endfacet
   facet normal -9.999969e-01 1.578339e-07 2.470564e-03
      outer loop
         vertex -4.501132e-01 6.334206e-01 -1.583974e+00
         vertex -4.501182e-01 6.749654e-01 -1.585979e+00
         vertex -4.501258e-01 6.326232e-01 -1.589065e+00
      endloop
   endfacet
   facet normal 0.000000e+00 -9.879510e-01 1.547670e-01
      outer loop
         vertex 6.764090e-02 6.326232e-01 -1.589065e+00
         vertex -4.501132e-01 6.334206e-01 -1.583974e+00
         vertex -4.501258e-01 6.326232e-01 -1.589065e+00
      endloop
   endfacet
   facet normal -2.059541e-04 -9.853797e-01 1.703724e-01
      outer loop
         vertex 4.501150e-01 6.332673e-01 -1.584877e+00
         vertex 6.764090e-02 6.343060e-01 -1.579331e+00
         vertex 6.764090e-02 6.326232e-01 -1.589065e+00
      endloop
   endfacet
   facet normal 1.573909e-04 -9.853797e-01 1.703724e-01
      outer loop
         vertex 6.764090e-02 6.343060e-01 -1.579331e+00
         vertex -4.501132e-01 6.334206e-01 -1.583974e+00
         vertex 6.764090e-02 6.326232e-01 -1.589065e+00
      endloop
   endfacet
   facet normal -9.999969e-01 -1.393516e-07 2.473495e-03
      outer loop
         vertex -4.502622e-01 6.826076e-01 -1.644189e+00
         vertex -4.502716e-01 6.339719e-01 -1.647999e+00
         vertex -4.502564e-01 6.329935e-01 -1.641854e+00
      endloop
   endfacet
   facet normal -9.999969e-01 -1.230493e-07 2.473841e-03
      outer loop
         vertex -4.502183e-01 6.801303e-01 -1.626432e+00
         vertex -4.502622e-01 6.826076e-01 -1.644189e+00
         vertex -4.502564e-01 6.329935e-01 -1.641854e+00
      endloop
   endfacet
   facet normal 0.000000e+00 -9.875609e-01 -1.572369e-01
      outer loop
         vertex -4.502716e-01 6.339719e-01 -1.647999e+00
         vertex 6.764090e-02 6.339719e-01 -1.647999e+00
         vertex -4.502564e-01 6.329935e-01 -1.641854e+00
      endloop
   endfacet
   facet normal 4.306817e-05 -9.864231e-01 -1.642237e-01
      outer loop
         vertex 6.764090e-02 6.339719e-01 -1.647999e+00
         vertex 4.502749e-01 6.342440e-01 -1.649533e+00
         vertex 4.502597e-01 6.332199e-01 -1.643382e+00
      endloop
   endfacet
   facet normal 9.999969e-01 1.952498e-08 2.470950e-03
      outer loop
         vertex 4.502749e-01 6.342440e-01 -1.649533e+00
         vertex 4.502571e-01 6.823420e-01 -1.642333e+00
         vertex 4.502597e-01 6.332199e-01 -1.643382e+00
      endloop
   endfacet
   facet normal -3.447766e-05 -9.833326e-01 1.818160e-01
      outer loop
         vertex 4.501012e-01 6.342930e-01 -1.579329e+00
         vertex 6.764090e-02 6.343060e-01 -1.579331e+00
         vertex 4.501150e-01 6.332673e-01 -1.584877e+00
      endloop
   endfacet
   facet normal 9.999969e-01 2.442461e-07 2.476498e-03
      outer loop
         vertex 4.501118e-01 6.746781e-01 -1.583593e+00
         vertex 4.501012e-01 6.342930e-01 -1.579329e+00
         vertex 4.501150e-01 6.332673e-01 -1.584877e+00
      endloop
   endfacet
   facet normal -9.999970e-01 1.096334e-07 2.469565e-03
      outer loop
         vertex -4.501007e-01 6.343796e-01 -1.578906e+00
         vertex -4.501182e-01 6.749654e-01 -1.585979e+00
         vertex -4.501132e-01 6.334206e-01 -1.583974e+00
      endloop
   endfacet
   facet normal 1.327513e-05 -9.825672e-01 1.859077e-01
      outer loop
         vertex 6.764090e-02 6.343060e-01 -1.579331e+00
         vertex -4.501007e-01 6.343796e-01 -1.578906e+00
         vertex -4.501132e-01 6.334206e-01 -1.583974e+00
      endloop
   endfacet
   facet normal -9.999969e-01 -3.740878e-07 2.476491e-03
      outer loop
         vertex -4.502622e-01 6.826076e-01 -1.644189e+00
         vertex -4.502872e-01 6.351598e-01 -1.654305e+00
         vertex -4.502716e-01 6.339719e-01 -1.647999e+00
      endloop
   endfacet
   facet normal 4.135738e-05 -9.827152e-01 -1.851240e-01
      outer loop
         vertex -4.502872e-01 6.351598e-01 -1.654305e+00
         vertex 6.764090e-02 6.342812e-01 -1.649525e+00
         vertex -4.502716e-01 6.339719e-01 -1.647999e+00
      endloop
   endfacet
   facet normal 0.000000e+00 -9.800763e-01 -1.986214e-01
      outer loop
         vertex 6.764090e-02 6.342812e-01 -1.649525e+00
         vertex 6.764090e-02 6.339719e-01 -1.647999e+00
         vertex -4.502716e-01 6.339719e-01 -1.647999e+00
      endloop
   endfacet
   facet normal -9.934875e-05 -9.800763e-01 -1.986214e-01
      outer loop
         vertex 6.764090e-02 6.342812e-01 -1.649525e+00
         vertex 4.502749e-01 6.342440e-01 -1.649533e+00
         vertex 6.764090e-02 6.339719e-01 -1.647999e+00
      endloop
   endfacet
   facet normal -9.934603e-05 -9.814206e-01 -1.918687e-01
      outer loop
         vertex 6.764090e-02 6.342812e-01 -1.649525e+00
         vertex 4.502906e-01 6.354820e-01 -1.655865e+00
         vertex 4.502749e-01 6.342440e-01 -1.649533e+00
      endloop
   endfacet
   facet normal 9.999969e-01 -6.456391e-07 2.475393e-03
      outer loop
         vertex 4.502906e-01 6.354820e-01 -1.655865e+00
         vertex 4.502571e-01 6.823420e-01 -1.642333e+00
         vertex 4.502749e-01 6.342440e-01 -1.649533e+00
      endloop
   endfacet
   facet normal -2.154088e-04 -9.800767e-01 -1.986192e-01
      outer loop
         vertex 6.764090e-02 6.365164e-01 -1.660555e+00
         vertex 4.502906e-01 6.354820e-01 -1.655865e+00
         vertex 6.764090e-02 6.342812e-01 -1.649525e+00
      endloop
   endfacet
   facet normal 1.703608e-04 -9.800767e-01 -1.986192e-01
      outer loop
         vertex -4.502872e-01 6.351598e-01 -1.654305e+00
         vertex 6.764090e-02 6.365164e-01 -1.660555e+00
         vertex 6.764090e-02 6.342812e-01 -1.649525e+00
      endloop
   endfacet
   facet normal 1.646543e-05 -9.767258e-01 2.144920e-01
      outer loop
         vertex 4.500891e-01 6.353695e-01 -1.574428e+00
         vertex 6.764090e-02 6.343796e-01 -1.578906e+00
         vertex 4.501012e-01 6.342930e-01 -1.579329e+00
      endloop
   endfacet
   facet normal -3.447989e-05 -9.854005e-01 1.702523e-01
      outer loop
         vertex 6.764090e-02 6.343796e-01 -1.578906e+00
         vertex 6.764090e-02 6.343060e-01 -1.579331e+00
         vertex 4.501012e-01 6.342930e-01 -1.579329e+00
      endloop
   endfacet
   facet normal 9.999970e-01 -5.829715e-07 2.468663e-03
      outer loop
         vertex 4.501118e-01 6.746781e-01 -1.583593e+00
         vertex 4.500891e-01 6.353695e-01 -1.574428e+00
         vertex 4.501012e-01 6.342930e-01 -1.579329e+00
      endloop
   endfacet
   facet normal 0.000000e+00 -9.854005e-01 1.702523e-01
      outer loop
         vertex 6.764090e-02 6.343796e-01 -1.578906e+00
         vertex -4.501007e-01 6.343796e-01 -1.578906e+00
         vertex 6.764090e-02 6.343060e-01 -1.579331e+00
      endloop
   endfacet
   facet normal -9.999969e-01 -6.623832e-07 2.477252e-03
      outer loop
         vertex -4.500886e-01 6.354662e-01 -1.574021e+00
         vertex -4.500734e-01 6.728090e-01 -1.567852e+00
         vertex -4.501007e-01 6.343796e-01 -1.578906e+00
      endloop
   endfacet
   facet normal -9.999969e-01 6.526770e-07 2.472681e-03
      outer loop
         vertex -4.500734e-01 6.728090e-01 -1.567852e+00
         vertex -4.501182e-01 6.749654e-01 -1.585979e+00
         vertex -4.501007e-01 6.343796e-01 -1.578906e+00
      endloop
   endfacet
   facet normal 0.000000e+00 -9.761370e-01 2.171556e-01
      outer loop
         vertex 6.764090e-02 6.343796e-01 -1.578906e+00
         vertex -4.500886e-01 6.354662e-01 -1.574021e+00
         vertex -4.501007e-01 6.343796e-01 -1.578906e+00
      endloop
   endfacet
   facet normal -2.156087e-04 -9.723918e-01 2.333540e-01
      outer loop
         vertex 4.500891e-01 6.353695e-01 -1.574428e+00
         vertex 6.764090e-02 6.366176e-01 -1.569580e+00
         vertex 6.764090e-02 6.343796e-01 -1.578906e+00
      endloop
   endfacet
   facet normal 1.606880e-04 -9.723918e-01 2.333540e-01
      outer loop
         vertex 6.764090e-02 6.366176e-01 -1.569580e+00
         vertex -4.500886e-01 6.354662e-01 -1.574021e+00
         vertex 6.764090e-02 6.343796e-01 -1.578906e+00
      endloop
   endfacet
   facet normal -9.999969e-01 -9.924191e-07 2.479392e-03
      outer loop
         vertex -4.502622e-01 6.826076e-01 -1.644189e+00
         vertex -4.503027e-01 6.365164e-01 -1.660555e+00
         vertex -4.502872e-01 6.351598e-01 -1.654305e+00
      endloop
   endfacet
   facet normal 0.000000e+00 -9.772432e-01 -2.121220e-01
      outer loop
         vertex -4.503027e-01 6.365164e-01 -1.660555e+00
         vertex 6.764090e-02 6.365164e-01 -1.660555e+00
         vertex -4.502872e-01 6.351598e-01 -1.654305e+00
      endloop
   endfacet
   facet normal -3.461391e-05 -9.690719e-01 2.467787e-01
      outer loop
         vertex 4.500771e-01 6.366047e-01 -1.569577e+00
         vertex 6.764090e-02 6.366176e-01 -1.569580e+00
         vertex 4.500891e-01 6.353695e-01 -1.574428e+00
      endloop
   endfacet
   facet normal 9.999969e-01 1.066275e-06 2.475736e-03
      outer loop
         vertex 4.501118e-01 6.746781e-01 -1.583593e+00
         vertex 4.500771e-01 6.366047e-01 -1.569577e+00
         vertex 4.500891e-01 6.353695e-01 -1.574428e+00
      endloop
   endfacet
   facet normal -9.999969e-01 -9.147113e-07 2.478780e-03
      outer loop
         vertex -4.500766e-01 6.367117e-01 -1.569187e+00
         vertex -4.500734e-01 6.728090e-01 -1.567852e+00
         vertex -4.500886e-01 6.354662e-01 -1.574021e+00
      endloop
   endfacet
   facet normal 1.306778e-05 -9.683695e-01 2.495204e-01
      outer loop
         vertex 6.764090e-02 6.366176e-01 -1.569580e+00
         vertex -4.500766e-01 6.367117e-01 -1.569187e+00
         vertex -4.500886e-01 6.354662e-01 -1.574021e+00
      endloop
   endfacet
   facet normal 4.260275e-05 -9.757860e-01 -2.187275e-01
      outer loop
         vertex 6.764090e-02 6.365164e-01 -1.660555e+00
         vertex 4.503061e-01 6.368889e-01 -1.662142e+00
         vertex 4.502906e-01 6.354820e-01 -1.655865e+00
      endloop
   endfacet
   facet normal 9.999969e-01 -1.822608e-07 2.473789e-03
      outer loop
         vertex 4.503061e-01 6.368889e-01 -1.662142e+00
         vertex 4.502571e-01 6.823420e-01 -1.642333e+00
         vertex 4.502906e-01 6.354820e-01 -1.655865e+00
      endloop
   endfacet
   facet normal -9.999970e-01 2.726595e-06 2.468918e-03
      outer loop
         vertex -4.502622e-01 6.826076e-01 -1.644189e+00
         vertex -4.503188e-01 6.381179e-01 -1.667075e+00
         vertex -4.503027e-01 6.365164e-01 -1.660555e+00
      endloop
   endfacet
   facet normal 4.124985e-05 -9.711333e-01 -2.385376e-01
      outer loop
         vertex -4.503188e-01 6.381179e-01 -1.667075e+00
         vertex 6.764090e-02 6.369259e-01 -1.662132e+00
         vertex -4.503027e-01 6.365164e-01 -1.660555e+00
      endloop
   endfacet
   facet normal 0.000000e+00 -9.679233e-01 -2.512458e-01
      outer loop
         vertex 6.764090e-02 6.369259e-01 -1.662132e+00
         vertex 6.764090e-02 6.365164e-01 -1.660555e+00
         vertex -4.503027e-01 6.365164e-01 -1.660555e+00
      endloop
   endfacet
   facet normal -9.994562e-05 -9.679233e-01 -2.512458e-01
      outer loop
         vertex 6.764090e-02 6.369259e-01 -1.662132e+00
         vertex 4.503061e-01 6.368889e-01 -1.662142e+00
         vertex 6.764090e-02 6.365164e-01 -1.660555e+00
      endloop
   endfacet
   facet normal 1.648768e-05 -9.599939e-01 2.800210e-01
      outer loop
         vertex 4.500660e-01 6.379172e-01 -1.565077e+00
         vertex 6.764090e-02 6.367117e-01 -1.569187e+00
         vertex 4.500771e-01 6.366047e-01 -1.569577e+00
      endloop
   endfacet
   facet normal -3.461741e-05 -9.724148e-01 2.332585e-01
      outer loop
         vertex 6.764090e-02 6.367117e-01 -1.569187e+00
         vertex 6.764090e-02 6.366176e-01 -1.569580e+00
         vertex 4.500771e-01 6.366047e-01 -1.569577e+00
      endloop
   endfacet
   facet normal 9.999969e-01 -6.439868e-07 2.477297e-03
      outer loop
         vertex 4.500680e-01 6.725805e-01 -1.565898e+00
         vertex 4.500660e-01 6.379172e-01 -1.565077e+00
         vertex 4.500771e-01 6.366047e-01 -1.569577e+00
      endloop
   endfacet
   facet normal 9.999969e-01 -1.473553e-07 2.472440e-03
      outer loop
         vertex 4.501118e-01 6.746781e-01 -1.583593e+00
         vertex 4.500680e-01 6.725805e-01 -1.565898e+00