solid RWslat
   facet normal -9.999969e-01 -2.752436e-07 2.473048e-03
      outer loop
         vertex -4.498472e-01 6.370535e-01 -1.476443e+00
         vertex -4.498640e-01 6.465522e-01 -1.483215e+00
         vertex -4.498666e-01 6.369815e-01 -1.484276e+00
      endloop
   endfacet
   facet normal -9.999969e-01 -5.970044e-07 2.475949e-03
      outer loop
         vertex -4.498640e-01 6.465522e-01 -1.483215e+00
         vertex -4.498807e-01 6.448485e-01 -1.489980e+00
         vertex -4.498666e-01 6.369815e-01 -1.484276e+00
      endloop
   endfacet
   facet normal -9.999969e-01 -1.282837e-06 2.475003e-03
      outer loop
         vertex -4.498807e-01 6.448485e-01 -1.489980e+00
         vertex -4.499061e-01 6.372072e-01 -1.500219e+00
         vertex -4.498666e-01 6.369815e-01 -1.484276e+00
      endloop
   endfacet
   facet normal 4.684709e-09 -9.998998e-01 -1.415709e-02
      outer loop
         vertex -4.499061e-01 6.372072e-01 -1.500219e+00
         vertex 6.764090e-02 6.370733e-01 -1.490759e+00
         vertex -4.498666e-01 6.369815e-01 -1.484276e+00
      endloop
   endfacet
   facet normal 0.000000e+00 -9.998998e-01 -1.415747e-02
      outer loop
         vertex 6.764090e-02 6.370733e-01 -1.490759e+00
         vertex 6.764090e-02 6.369815e-01 -1.484276e+00
         vertex -4.498666e-01 6.369815e-01 -1.484276e+00
      endloop
   endfacet
   facet normal 0.000000e+00 -9.999578e-01 9.191760e-03
      outer loop
         vertex 6.764090e-02 6.369815e-01 -1.484276e+00
         vertex -4.498472e-01 6.370535e-01 -1.476443e+00
         vertex -4.498666e-01 6.369815e-01 -1.484276e+00
      endloop
   endfacet
   facet normal -8.254920e-05 -9.998263e-01 1.863500e-02
      outer loop
         vertex 4.498611e-01 6.369877e-01 -1.482250e+00
         vertex 6.764090e-02 6.371780e-01 -1.473736e+00
         vertex 6.764090e-02 6.369815e-01 -1.484276e+00
      endloop
   endfacet
   facet normal 3.503904e-05 -9.999937e-01 -3.551178e-03
      outer loop
         vertex 4.498821e-01 6.370179e-01 -1.490760e+00
         vertex 4.498611e-01 6.369877e-01 -1.482250e+00
         vertex 6.764090e-02 6.369815e-01 -1.484276e+00
      endloop
   endfacet
   facet normal -1.448777e-04 -9.998998e-01 -1.415747e-02
      outer loop
         vertex 6.764090e-02 6.370733e-01 -1.490759e+00
         vertex 4.498821e-01 6.370179e-01 -1.490760e+00
         vertex 6.764090e-02 6.369815e-01 -1.484276e+00
      endloop
   endfacet
   facet normal 1.429573e-04 -9.998263e-01 1.863500e-02
      outer loop
         vertex 6.764090e-02 6.371780e-01 -1.473736e+00
         vertex -4.498472e-01 6.370535e-01 -1.476443e+00
         vertex 6.764090e-02 6.369815e-01 -1.484276e+00
      endloop
   endfacet
   facet normal -1.753189e-04 -9.998953e-01 1.447220e-02
      outer loop
         vertex 4.498400e-01 6.371110e-01 -1.473734e+00
         vertex 6.764090e-02 6.371780e-01 -1.473736e+00
         vertex 4.498611e-01 6.369877e-01 -1.482250e+00
      endloop
   endfacet
   facet normal 9.999969e-01 -1.105406e-06 2.472581e-03
      outer loop
         vertex 4.498821e-01 6.370179e-01 -1.490760e+00
         vertex 4.498802e-01 6.448472e-01 -1.489985e+00
         vertex 4.498611e-01 6.369877e-01 -1.482250e+00
      endloop
   endfacet
   facet normal 9.999969e-01 1.754988e-06 2.475488e-03
      outer loop
         vertex 4.498802e-01 6.448472e-01 -1.489985e+00
         vertex 4.498635e-01 6.465506e-01 -1.483220e+00
         vertex 4.498611e-01 6.369877e-01 -1.482250e+00
      endloop
   endfacet
   facet normal 9.999969e-01 1.619636e-06 2.474153e-03
      outer loop
         vertex 4.498635e-01 6.465506e-01 -1.483220e+00
         vertex 4.498400e-01 6.371110e-01 -1.473734e+00
         vertex 4.498611e-01 6.369877e-01 -1.482250e+00
      endloop
   endfacet
   facet normal -1.448746e-04 -9.997847e-01 -2.074794e-02
      outer loop
         vertex 6.764090e-02 6.370733e-01 -1.490759e+00
         vertex 4.499080e-01 6.372351e-01 -1.501226e+00
         vertex 4.498821e-01 6.370179e-01 -1.490760e+00
      endloop
   endfacet
   facet normal 9.999969e-01 -1.581215e-06 2.474374e-03
      outer loop
         vertex 4.499080e-01 6.372351e-01 -1.501226e+00
         vertex 4.499109e-01 6.421589e-01 -1.502379e+00
         vertex 4.498821e-01 6.370179e-01 -1.490760e+00
      endloop
   endfacet
   facet normal 9.999969e-01 -5.204721e-07 2.474843e-03
      outer loop
         vertex 4.499109e-01 6.421589e-01 -1.502379e+00
         vertex 4.498970e-01 6.433004e-01 -1.496767e+00
         vertex 4.498821e-01 6.370179e-01 -1.490760e+00
      endloop
   endfacet
   facet normal 9.999969e-01 -1.253412e-06 2.474077e-03
      outer loop
         vertex 4.498970e-01 6.433004e-01 -1.496767e+00
         vertex 4.498802e-01 6.448472e-01 -1.489985e+00
         vertex 4.498821e-01 6.370179e-01 -1.490760e+00
      endloop
   endfacet
   facet normal -9.999969e-01 -8.367641e-07 2.478672e-03
      outer loop
         vertex -4.498278e-01 6.372736e-01 -1.468604e+00
         vertex -4.498305e-01 6.503642e-01 -1.469705e+00
         vertex -4.498472e-01 6.370535e-01 -1.476443e+00
      endloop
   endfacet
   facet normal -9.999969e-01 -3.319116e-07 2.477675e-03
      outer loop
         vertex -4.498305e-01 6.503642e-01 -1.469705e+00
         vertex -4.498472e-01 6.483995e-01 -1.476442e+00
         vertex -4.498472e-01 6.370535e-01 -1.476443e+00
      endloop
   endfacet
   facet normal -9.999969e-01 -3.312813e-07 2.472970e-03
      outer loop
         vertex -4.498472e-01 6.483995e-01 -1.476442e+00
         vertex -4.498640e-01 6.465522e-01 -1.483215e+00
         vertex -4.498472e-01 6.370535e-01 -1.476443e+00
      endloop
   endfacet
   facet normal 9.355363e-05 -9.996060e-01 2.806747e-02
      outer loop
         vertex 6.764090e-02 6.371780e-01 -1.473736e+00
         vertex -4.498278e-01 6.372736e-01 -1.468604e+00
         vertex -4.498472e-01 6.370535e-01 -1.476443e+00
      endloop
   endfacet
   facet normal 3.565085e-05 -9.998998e-01 -1.415684e-02
      outer loop
         vertex 6.764090e-02 6.372072e-01 -1.500219e+00
         vertex 4.499080e-01 6.372351e-01 -1.501226e+00
         vertex 6.764090e-02 6.370733e-01 -1.490759e+00
      endloop
   endfacet
   facet normal 0.000000e+00 -9.998998e-01 -1.415684e-02
      outer loop
         vertex -4.499061e-01 6.372072e-01 -1.500219e+00
         vertex 6.764090e-02 6.372072e-01 -1.500219e+00
         vertex 6.764090e-02 6.370733e-01 -1.490759e+00
      endloop
   endfacet
   facet normal 2.830914e-05 -9.994288e-01 3.379468e-02
      outer loop
         vertex 4.498238e-01 6.373322e-01 -1.467191e+00
         vertex 6.764090e-02 6.372736e-01 -1.468604e+00
         vertex 4.498400e-01 6.371110e-01 -1.473734e+00
      endloop
   endfacet
   facet normal -1.753204e-04 -9.998263e-01 1.863817e-02
      outer loop
         vertex 6.764090e-02 6.372736e-01 -1.468604e+00
         vertex 6.764090e-02 6.371780e-01 -1.473736e+00
         vertex 4.498400e-01 6.371110e-01 -1.473734e+00
      endloop
   endfacet
   facet normal 9.999969e-01 3.672386e-07 2.472907e-03
      outer loop
         vertex 4.498635e-01 6.465506e-01 -1.483220e+00
         vertex 4.498467e-01 6.483978e-01 -1.476448e+00
         vertex 4.498400e-01 6.371110e-01 -1.473734e+00
      endloop
   endfacet
   facet normal 9.999969e-01 1.516058e-06 2.477686e-03
      outer loop
         vertex 4.498467e-01 6.483978e-01 -1.476448e+00
         vertex 4.498238e-01 6.373322e-01 -1.467191e+00
         vertex 4.498400e-01 6.371110e-01 -1.473734e+00
      endloop
   endfacet
   facet normal 0.000000e+00 -9.998263e-01 1.863817e-02
      outer loop
         vertex 6.764090e-02 6.372736e-01 -1.468604e+00
         vertex -4.498278e-01 6.372736e-01 -1.468604e+00
         vertex 6.764090e-02 6.371780e-01 -1.473736e+00
      endloop
   endfacet
   facet normal -9.999969e-01 -6.684493e-06 2.470042e-03
      outer loop
         vertex -4.499253e-01 6.411653e-01 -1.508002e+00
         vertex -4.499427e-01 6.377400e-01 -1.515058e+00
         vertex -4.499061e-01 6.372072e-01 -1.500219e+00
      endloop
   endfacet
   facet normal -9.999969e-01 7.435831e-06 2.477223e-03
      outer loop
         vertex -4.499114e-01 6.421597e-01 -1.502375e+00
         vertex -4.499253e-01 6.411653e-01 -1.508002e+00
         vertex -4.499061e-01 6.372072e-01 -1.500219e+00
      endloop
   endfacet
   facet normal -9.999970e-01 9.233085e-06 2.467155e-03
      outer loop
         vertex -4.498807e-01 6.448485e-01 -1.489980e+00
         vertex -4.498975e-01 6.433015e-01 -1.496763e+00
         vertex -4.499061e-01 6.372072e-01 -1.500219e+00
      endloop
   endfacet
   facet normal -9.999969e-01 5.736728e-06 2.473320e-03
      outer loop
         vertex -4.498975e-01 6.433015e-01 -1.496763e+00
         vertex -4.499114e-01 6.421597e-01 -1.502375e+00
         vertex -4.499061e-01 6.372072e-01 -1.500219e+00
      endloop
   endfacet
   facet normal -7.964620e-08 -9.993560e-01 -3.588244e-02
      outer loop
         vertex -4.499427e-01 6.377400e-01 -1.515058e+00
         vertex 6.764090e-02 6.376189e-01 -1.511686e+00
         vertex -4.499061e-01 6.372072e-01 -1.500219e+00
      endloop
   endfacet
   facet normal 0.000000e+00 -9.993561e-01 -3.587885e-02
      outer loop
         vertex 6.764090e-02 6.376189e-01 -1.511686e+00
         vertex 6.764090e-02 6.372072e-01 -1.500219e+00
         vertex -4.499061e-01 6.372072e-01 -1.500219e+00
      endloop
   endfacet
   facet normal -1.671084e-05 -9.994215e-01 -3.400933e-02
      outer loop
         vertex 4.499339e-01 6.375911e-01 -1.511687e+00
         vertex 4.499080e-01 6.372351e-01 -1.501226e+00
         vertex 6.764090e-02 6.372072e-01 -1.500219e+00
      endloop
   endfacet
   facet normal -7.285843e-05 -9.993561e-01 -3.587885e-02
      outer loop
         vertex 6.764090e-02 6.376189e-01 -1.511686e+00
         vertex 4.499339e-01 6.375911e-01 -1.511687e+00
         vertex 6.764090e-02 6.372072e-01 -1.500219e+00
      endloop
   endfacet
   facet normal 9.999969e-01 -4.136784e-06 2.472821e-03
      outer loop
         vertex 4.499339e-01 6.375911e-01 -1.511687e+00
         vertex 4.499356e-01 6.405227e-01 -1.512393e+00
         vertex 4.499080e-01 6.372351e-01 -1.501226e+00
      endloop
   endfacet
   facet normal 9.999969e-01 -2.636277e-06 2.473263e-03
      outer loop
         vertex 4.499356e-01 6.405227e-01 -1.512393e+00
         vertex 4.499248e-01 6.411648e-01 -1.508006e+00
         vertex 4.499080e-01 6.372351e-01 -1.501226e+00
      endloop
   endfacet
   facet normal 9.999969e-01 -1.716446e-06 2.473796e-03
      outer loop
         vertex 4.499248e-01 6.411648e-01 -1.508006e+00
         vertex 4.499109e-01 6.421589e-01 -1.502379e+00
         vertex 4.499080e-01 6.372351e-01 -1.501226e+00
      endloop
   endfacet
   facet normal -9.999969e-01 -1.182278e-06 2.474567e-03
      outer loop
         vertex -4.498130e-01 6.375698e-01 -1.462630e+00
         vertex -4.498305e-01 6.503642e-01 -1.469705e+00
         vertex -4.498278e-01 6.372736e-01 -1.468604e+00
      endloop
   endfacet
   facet normal 0.000000e+00 -9.987732e-01 4.951929e-02
      outer loop
         vertex 6.764090e-02 6.372736e-01 -1.468604e+00
         vertex -4.498130e-01 6.375698e-01 -1.462630e+00
         vertex -4.498278e-01 6.372736e-01 -1.468604e+00
      endloop
   endfacet
   facet normal -7.588900e-05 -9.980805e-01 6.192970e-02
      outer loop
         vertex 4.498238e-01 6.373322e-01 -1.467191e+00
         vertex 6.764090e-02 6.377669e-01 -1.460654e+00
         vertex 6.764090e-02 6.372736e-01 -1.468604e+00
      endloop
   endfacet
   facet normal 1.436667e-04 -9.980805e-01 6.192970e-02
      outer loop
         vertex 6.764090e-02 6.377669e-01 -1.460654e+00
         vertex -4.498130e-01 6.375698e-01 -1.462630e+00
         vertex 6.764090e-02 6.372736e-01 -1.468604e+00
      endloop
   endfacet
   facet normal -1.781379e-04 -9.984321e-01 5.597550e-02
      outer loop
         vertex 4.498076e-01 6.376990e-01 -1.460649e+00
         vertex 6.764090e-02 6.377669e-01 -1.460654e+00
         vertex 4.498238e-01 6.373322e-01 -1.467191e+00
      endloop
   endfacet
   facet normal 9.999969e-01 -1.740616e-06 2.473793e-03
      outer loop
         vertex 4.498467e-01 6.483978e-01 -1.476448e+00
         vertex 4.498301e-01 6.503622e-01 -1.469712e+00
         vertex 4.498238e-01 6.373322e-01 -1.467191e+00
      endloop
   endfacet
   facet normal 9.999969e-01 -1.720671e-06 2.473896e-03
      outer loop
         vertex 4.498301e-01 6.503622e-01 -1.469712e+00
         vertex 4.498076e-01 6.376990e-01 -1.460649e+00
         vertex 4.498238e-01 6.373322e-01 -1.467191e+00
      endloop
   endfacet
   facet normal -9.999969e-01 -2.223345e-06 2.472684e-03
      outer loop
         vertex -4.498094e-01 6.530254e-01 -1.461146e+00
         vertex -4.498305e-01 6.503642e-01 -1.469705e+00
         vertex -4.498130e-01 6.375698e-01 -1.462630e+00
      endloop
   endfacet
   facet normal -9.999969e-01 -2.258259e-06 2.473048e-03
      outer loop
         vertex -4.497983e-01 6.380137e-01 -1.456677e+00
         vertex -4.498094e-01 6.530254e-01 -1.461146e+00
         vertex -4.498130e-01 6.375698e-01 -1.462630e+00
      endloop
   endfacet
   facet normal 9.590469e-05 -9.972322e-01 7.435045e-02
      outer loop
         vertex 6.764090e-02 6.377669e-01 -1.460654e+00
         vertex -4.497983e-01 6.380137e-01 -1.456677e+00
         vertex -4.498130e-01 6.375698e-01 -1.462630e+00
      endloop
   endfacet
   facet normal -7.285375e-05 -9.988868e-01 -4.717109e-02
      outer loop
         vertex 6.764090e-02 6.376189e-01 -1.511686e+00
         vertex 4.499474e-01 6.378485e-01 -1.517138e+00
         vertex 4.499339e-01 6.375911e-01 -1.511687e+00
      endloop
   endfacet
   facet normal 9.999969e-01 6.214471e-06 2.476812e-03
      outer loop
         vertex 4.499474e-01 6.378485e-01 -1.517138e+00
         vertex 4.499465e-01 6.400289e-01 -1.516795e+00
         vertex 4.499339e-01 6.375911e-01 -1.511687e+00
      endloop
   endfacet
   facet normal 9.999969e-01 -4.395164e-06 2.471749e-03
      outer loop
         vertex 4.499465e-01 6.400289e-01 -1.516795e+00
         vertex 4.499356e-01 6.405227e-01 -1.512393e+00
         vertex 4.499339e-01 6.375911e-01 -1.511687e+00
      endloop
   endfacet
   facet normal 8.824963e-05 -9.993556e-01 -3.589465e-02
      outer loop
         vertex 6.764090e-02 6.377400e-01 -1.515058e+00
         vertex 4.499474e-01 6.378485e-01 -1.517138e+00
         vertex 6.764090e-02 6.376189e-01 -1.511686e+00
      endloop
   endfacet
   facet normal 0.000000e+00 -9.993556e-01 -3.589465e-02
      outer loop
         vertex -4.499427e-01 6.377400e-01 -1.515058e+00
         vertex 6.764090e-02 6.377400e-01 -1.515058e+00
         vertex 6.764090e-02 6.376189e-01 -1.511686e+00
      endloop
   endfacet
   facet normal 1.740960e-05 -9.967441e-01 8.063016e-02
      outer loop
         vertex 4.497962e-01 6.380730e-01 -1.456026e+00
         vertex 6.764090e-02 6.380137e-01 -1.456677e+00
         vertex 4.498076e-01 6.376990e-01 -1.460649e+00
      endloop
   endfacet
   facet normal -1.781410e-04 -9.980807e-01 6.192570e-02
      outer loop
         vertex 6.764090e-02 6.380137e-01 -1.456677e+00
         vertex 6.764090e-02 6.377669e-01 -1.460654e+00
         vertex 4.498076e-01 6.376990e-01 -1.460649e+00
      endloop
   endfacet
   facet normal 9.999969e-01 -8.394336e-07 2.475127e-03
      outer loop
         vertex 4.498301e-01 6.503622e-01 -1.469712e+00
         vertex 4.498089e-01 6.530163e-01 -1.461174e+00
         vertex 4.498076e-01 6.376990e-01 -1.460649e+00
      endloop
   endfacet
   facet normal 9.999970e-01 -1.056815e-06 2.468780e-03
      outer loop
         vertex 4.498089e-01 6.530163e-01 -1.461174e+00
         vertex 4.497962e-01 6.380730e-01 -1.456026e+00
         vertex 4.498076e-01 6.376990e-01 -1.460649e+00
      endloop
   endfacet
   facet normal -9.999970e-01 -7.601345e-06 2.465109e-03
      outer loop
         vertex -4.499362e-01 6.405232e-01 -1.512389e+00
         vertex -4.499470e-01 6.400291e-01 -1.516792e+00
         vertex -4.499427e-01 6.377400e-01 -1.515058e+00
      endloop
   endfacet
   facet normal -9.999969e-01 6.683785e-06 2.483968e-03
      outer loop
         vertex -4.499470e-01 6.400291e-01 -1.516792e+00
         vertex -4.499559e-01 6.397675e-01 -1.520390e+00
         vertex -4.499427e-01 6.377400e-01 -1.515058e+00
      endloop
   endfacet
   facet normal -9.999969e-01 -1.675142e-05 2.475058e-03
      outer loop
         vertex -4.499559e-01 6.397675e-01 -1.520390e+00
         vertex -4.499645e-01 6.383388e-01 -1.523868e+00
         vertex -4.499427e-01 6.377400e-01 -1.515058e+00
      endloop
   endfacet
   facet normal -9.999969e-01 -1.724803e-05 2.475171e-03
      outer loop
         vertex -4.499253e-01 6.411653e-01 -1.508002e+00
         vertex -4.499362e-01 6.405232e-01 -1.512389e+00
         vertex -4.499427e-01 6.377400e-01 -1.515058e+00
      endloop
   endfacet
   facet normal 0.000000e+00 -9.976982e-01 -6.781062e-02
      outer loop
         vertex -4.499645e-01 6.383388e-01 -1.523868e+00
         vertex 6.764090e-02 6.383388e-01 -1.523868e+00
         vertex -4.499427e-01 6.377400e-01 -1.515058e+00
      endloop
   endfacet
   facet normal 2.914362e-07 -9.976994e-01 -6.779358e-02
      outer loop
         vertex 6.764090e-02 6.383388e-01 -1.523868e+00
         vertex 6.764090e-02 6.382515e-01 -1.522583e+00
         vertex -4.499427e-01 6.377400e-01 -1.515058e+00
      endloop
   endfacet
   facet normal 0.000000e+00 -9.976980e-01 -6.781353e-02
      outer loop
         vertex 6.764090e-02 6.382515e-01 -1.522583e+00
         vertex 6.764090e-02 6.377400e-01 -1.515058e+00
         vertex -4.499427e-01 6.377400e-01 -1.515058e+00
      endloop
   endfacet
   facet normal -9.650485e-05 -9.975642e-01 -6.975421e-02
      outer loop
         vertex 4.499609e-01 6.382293e-01 -1.522584e+00
         vertex 4.499474e-01 6.378485e-01 -1.517138e+00
         vertex 6.764090e-02 6.377400e-01 -1.515058e+00
      endloop
   endfacet
   facet normal -5.812918e-05 -9.976980e-01 -6.781353e-02
      outer loop
         vertex 6.764090e-02 6.382515e-01 -1.522583e+00
         vertex 4.499609e-01 6.382293e-01 -1.522584e+00
         vertex 6.764090e-02 6.377400e-01 -1.515058e+00
      endloop
   endfacet
   facet normal 0.000000e+00 -9.980808e-01 6.192570e-02
      outer loop
         vertex 6.764090e-02 6.380137e-01 -1.456677e+00
         vertex -4.497983e-01 6.380137e-01 -1.456677e+00
         vertex 6.764090e-02 6.377669e-01 -1.460654e+00
      endloop
   endfacet
   facet normal 9.999969e-01 1.377218e-06 2.473542e-03
      outer loop
         vertex 4.499609e-01 6.382293e-01 -1.522584e+00
         vertex 4.499644e-01 6.396621e-01 -1.524007e+00
         vertex 4.499474e-01 6.378485e-01 -1.517138e+00
      endloop
   endfacet
   facet normal 9.999969e-01 2.647185e-06 2.473877e-03
      outer loop
         vertex 4.499644e-01 6.396621e-01 -1.524007e+00
         vertex 4.499554e-01 6.397674e-01 -1.520393e+00
         vertex 4.499474e-01 6.378485e-01 -1.517138e+00
      endloop
   endfacet
   facet normal 9.999969e-01 6.334429e-06 2.476051e-03
      outer loop
         vertex 4.499554e-01 6.397674e-01 -1.520393e+00
         vertex 4.499465e-01 6.400289e-01 -1.516795e+00
         vertex 4.499474e-01 6.378485e-01 -1.517138e+00
      endloop
   endfacet
   facet normal -9.999969e-01 -1.356333e-06 2.476077e-03
      outer loop
         vertex -4.497874e-01 6.384631e-01 -1.452271e+00
         vertex -4.498094e-01 6.530254e-01 -1.461146e+00
         vertex -4.497983e-01 6.380137e-01 -1.456677e+00
      endloop
   endfacet
   facet normal 0.000000e+00 -9.948368e-01 1.014877e-01
      outer loop
         vertex 6.764090e-02 6.380137e-01 -1.456677e+00
         vertex -4.497874e-01 6.384631e-01 -1.452271e+00
         vertex -4.497983e-01 6.380137e-01 -1.456677e+00
      endloop
   endfacet
   facet normal -4.228455e-05 -9.933214e-01 1.153803e-01
      outer loop
         vertex 4.497962e-01 6.380730e-01 -1.456026e+00
         vertex 6.764090e-02 6.386232e-01 -1.451429e+00
         vertex 6.764090e-02 6.380137e-01 -1.456677e+00
      endloop
   endfacet
   facet normal 1.195994e-04 -9.933214e-01 1.153803e-01
      outer loop
         vertex 6.764090e-02 6.386232e-01 -1.451429e+00
         vertex -4.497874e-01 6.384631e-01 -1.452271e+00
         vertex 6.764090e-02 6.380137e-01 -1.456677e+00
      endloop
   endfacet
   facet normal -1.574859e-04 -9.943737e-01 1.059289e-01
      outer loop
         vertex 4.497848e-01 6.385634e-01 -1.451422e+00
         vertex 6.764090e-02 6.386232e-01 -1.451429e+00
         vertex 4.497962e-01 6.380730e-01 -1.456026e+00
      endloop
   endfacet
   facet normal 9.999969e-01 2.496521e-06 2.479094e-03
      outer loop
         vertex 4.498089e-01 6.530163e-01 -1.461174e+00
         vertex 4.497848e-01 6.385634e-01 -1.451422e+00
         vertex 4.497962e-01 6.380730e-01 -1.456026e+00
      endloop
   endfacet
   facet normal -5.806488e-05 -9.934162e-01 -1.145607e-01
      outer loop
         vertex 6.764090e-02 6.382515e-01 -1.522583e+00
         vertex 4.499790e-01 6.390737e-01 -1.529906e+00
         vertex 4.499609e-01 6.382293e-01 -1.522584e+00
      endloop
   endfacet
   facet normal 9.999969e-01 -2.288780e-06 2.474472e-03
      outer loop
         vertex 4.499790e-01 6.390737e-01 -1.529906e+00
         vertex 4.499726e-01 6.397077e-01 -1.527328e+00
         vertex 4.499609e-01 6.382293e-01 -1.522584e+00
      endloop
   endfacet
   facet normal 9.999969e-01 4.357911e-06 2.476544e-03
      outer loop
         vertex 4.499726e-01 6.397077e-01 -1.527328e+00
         vertex 4.499644e-01 6.396621e-01 -1.524007e+00
         vertex 4.499609e-01 6.382293e-01 -1.522584e+00
      endloop
   endfacet
   facet normal 8.469346e-04 -9.976990e-01 -6.779356e-02
      outer loop
         vertex 6.764090e-02 6.383388e-01 -1.523868e+00
         vertex 4.499790e-01 6.390737e-01 -1.529906e+00
         vertex 6.764090e-02 6.382515e-01 -1.522583e+00
      endloop
   endfacet
   facet normal -9.999969e-01 -1.425714e-05 2.474033e-03
      outer loop
         vertex -4.499559e-01 6.397675e-01 -1.520390e+00
         vertex -4.499649e-01 6.396621e-01 -1.524005e+00
         vertex -4.499645e-01 6.383388e-01 -1.523868e+00
      endloop
   endfacet
   facet normal -9.999969e-01 -1.400969e-05 2.476425e-03
      outer loop
         vertex -4.499649e-01 6.396621e-01 -1.524005e+00
         vertex -4.499731e-01 6.397077e-01 -1.527326e+00
         vertex -4.499645e-01 6.383388e-01 -1.523868e+00
      endloop
   endfacet
   facet normal -9.999970e-01 -3.369809e-05 2.468632e-03
      outer loop
         vertex -4.499731e-01 6.397077e-01 -1.527326e+00
         vertex -4.499810e-01 6.391579e-01 -1.530545e+00
         vertex -4.499645e-01 6.383388e-01 -1.523868e+00
      endloop
   endfacet
   facet normal 0.000000e+00 -9.925604e-01 -1.217530e-01
      outer loop
         vertex -4.499810e-01 6.391579e-01 -1.530545e+00
         vertex 6.764090e-02 6.391579e-01 -1.530545e+00
         vertex -4.499645e-01 6.383388e-01 -1.523868e+00
      endloop
   endfacet
   facet normal 7.757618e-07 -9.925677e-01 -1.216938e-01
      outer loop
         vertex 6.764090e-02 6.391579e-01 -1.530545e+00
         vertex 6.764090e-02 6.390795e-01 -1.529905e+00
         vertex -4.499645e-01 6.383388e-01 -1.523868e+00
      endloop
   endfacet
   facet normal 0.000000e+00 -9.925597e-01 -1.217593e-01
      outer loop
         vertex 6.764090e-02 6.390795e-01 -1.529905e+00
         vertex 6.764090e-02 6.383388e-01 -1.523868e+00
         vertex -4.499645e-01 6.383388e-01 -1.523868e+00
      endloop
   endfacet
   facet normal -1.523235e-05 -9.925597e-01 -1.217593e-01
      outer loop
         vertex 6.764090e-02 6.390795e-01 -1.529905e+00
         vertex 4.499790e-01 6.390737e-01 -1.529906e+00
         vertex 6.764090e-02 6.383388e-01 -1.523868e+00
      endloop
   endfacet
   facet normal -9.999969e-01 -4.631529e-08 2.478227e-03
      outer loop
         vertex -4.497883e-01 6.558314e-01 -1.452631e+00
         vertex -4.498094e-01 6.530254e-01 -1.461146e+00
         vertex -4.497874e-01 6.384631e-01 -1.452271e+00
      endloop
   endfacet
   facet normal -9.999969e-01 -1.311697e-07 2.474138e-03
      outer loop
         vertex -4.497765e-01 6.390347e-01 -1.447886e+00
         vertex -4.497883e-01 6.558314e-01 -1.452631e+00
         vertex -4.497874e-01 6.384631e-01 -1.452271e+00
      endloop
   endfacet
   facet normal 9.646281e-05 -9.916090e-01 1.292734e-01
      outer loop
         vertex 6.764090e-02 6.386232e-01 -1.451429e+00
         vertex -4.497765e-01 6.390347e-01 -1.447886e+00
         vertex -4.497874e-01 6.384631e-01 -1.452271e+00
      endloop
   endfacet
   facet normal 1.967352e-05 -9.909521e-01 1.342161e-01
      outer loop
         vertex 4.497746e-01 6.391218e-01 -1.447300e+00
         vertex 6.764090e-02 6.390347e-01 -1.447886e+00
         vertex 4.497848e-01 6.385634e-01 -1.451422e+00
      endloop
   endfacet
   facet normal -1.574929e-04 -9.933210e-01 1.153835e-01
      outer loop
         vertex 6.764090e-02 6.390347e-01 -1.447886e+00
         vertex 6.764090e-02 6.386232e-01 -1.451429e+00
         vertex 4.497848e-01 6.385634e-01 -1.451422e+00
      endloop
   endfacet
   facet normal 9.999969e-01 -7.509823e-07 2.474281e-03
      outer loop
         vertex 4.498089e-01 6.530163e-01 -1.461174e+00
         vertex 4.497879e-01 6.558144e-01 -1.452682e+00
         vertex 4.497848e-01 6.385634e-01 -1.451422e+00
      endloop
   endfacet
   facet normal 9.999969e-01 -8.874253e-07 2.472412e-03
      outer loop
         vertex 4.497879e-01 6.558144e-01 -1.452682e+00
         vertex 4.497746e-01 6.391218e-01 -1.447300e+00
         vertex 4.497848e-01 6.385634e-01 -1.451422e+00
      endloop
   endfacet
   facet normal 0.000000e+00 -9.933210e-01 1.153835e-01
      outer loop
         vertex 6.764090e-02 6.390347e-01 -1.447886e+00
         vertex -4.497765e-01 6.390347e-01 -1.447886e+00
         vertex 6.764090e-02 6.386232e-01 -1.451429e+00
      endloop
   endfacet
   facet normal -9.999969e-01 -8.481952e-07 2.471600e-03
      outer loop
         vertex -4.497621e-01 6.595003e-01 -1.442043e+00
         vertex -4.497883e-01 6.558314e-01 -1.452631e+00
         vertex -4.497765e-01 6.390347e-01 -1.447886e+00
      endloop
   endfacet
   facet normal -9.999970e-01 1.752693e-06 2.462490e-03
      outer loop
         vertex -4.497668e-01 6.396769e-01 -1.443917e+00
         vertex -4.497621e-01 6.595003e-01 -1.442043e+00
         vertex -4.497765e-01 6.390347e-01 -1.447886e+00
      endloop
   endfacet
   facet normal 0.000000e+00 -9.871630e-01 1.597158e-01
      outer loop
         vertex 6.764090e-02 6.390347e-01 -1.447886e+00
         vertex -4.497668e-01 6.396769e-01 -1.443917e+00
         vertex -4.497765e-01 6.390347e-01 -1.447886e+00
      endloop
   endfacet
   facet normal -4.596613e-05 -9.843940e-01 1.759787e-01
      outer loop
         vertex 4.497746e-01 6.391218e-01 -1.447300e+00
         vertex 6.764090e-02 6.398707e-01 -1.443210e+00
         vertex 6.764090e-02 6.390347e-01 -1.447886e+00
      endloop
   endfacet
   facet normal 1.281931e-04 -9.843940e-01 1.759787e-01
      outer loop
         vertex 6.764090e-02 6.398707e-01 -1.443210e+00
         vertex -4.497668e-01 6.396769e-01 -1.443917e+00
         vertex 6.764090e-02 6.390347e-01 -1.447886e+00
      endloop
   endfacet
   facet normal -1.522583e-05 -9.887925e-01 -1.492962e-01
      outer loop
         vertex 6.764090e-02 6.390795e-01 -1.529905e+00
         vertex 4.499886e-01 6.396624e-01 -1.533805e+00
         vertex 4.499790e-01 6.390737e-01 -1.529906e+00
      endloop
   endfacet
   facet normal 9.999969e-01 3.955048e-05 2.484376e-03
      outer loop
         vertex 4.499889e-01 6.402451e-01 -1.533907e+00
         vertex 4.499808e-01 6.398845e-01 -1.530663e+00
         vertex 4.499790e-01 6.390737e-01 -1.529906e+00
      endloop
   endfacet
   facet normal 9.999970e-01 2.422343e-05 2.467952e-03
      outer loop
         vertex 4.499808e-01 6.398845e-01 -1.530663e+00
         vertex 4.499726e-01 6.397077e-01 -1.527328e+00
         vertex 4.499790e-01 6.390737e-01 -1.529906e+00
      endloop
   endfacet
   facet normal 9.999970e-01 -2.627864e-05 2.465104e-03
      outer loop
         vertex 4.499886e-01 6.396624e-01 -1.533805e+00
         vertex 4.499889e-01 6.402451e-01 -1.533907e+00
         vertex 4.499790e-01 6.390737e-01 -1.529906e+00
      endloop
   endfacet
   facet normal 2.720336e-04 -9.925677e-01 -1.216938e-01
      outer loop
         vertex 6.764090e-02 6.391579e-01 -1.530545e+00
         vertex 4.499886e-01 6.396624e-01 -1.533805e+00
         vertex 6.764090e-02 6.390795e-01 -1.529905e+00
      endloop
   endfacet
   facet normal -1.690581e-04 -9.863220e-01 1.648299e-01
      outer loop
         vertex 4.497645e-01 6.398071e-01 -1.443199e+00
         vertex 6.764090e-02 6.398707e-01 -1.443210e+00
         vertex 4.497746e-01 6.391218e-01 -1.447300e+00
      endloop
   endfacet
   facet normal 9.999969e-01 -1.324544e-06 2.471057e-03
      outer loop
         vertex 4.497879e-01 6.558144e-01 -1.452682e+00
         vertex 4.497645e-01 6.398071e-01 -1.443199e+00